<?xml version="1.0"?>
<VTKFile type="UnstructuredGrid"  version="0.1"  >
<UnstructuredGrid>
<Piece  NumberOfPoints="550" NumberOfCells="1566">
<Points>
<DataArray  type="Float64"  NumberOfComponents="3"  format="ascii">0 0 0  0 1 0  1 1 0  1 0 0  1 0.95 0  1 0.9 0  1 0.85 0  1 0.8 0  1 0.75 0  1 0.7 0  1 0.65 0  1 0.6 0  1 0.55 0  1 0.5 0  1 0.45 0  1 0.4 0  1 0.35 0  1 0.3 0  1 0.25 0  1 0.2 0  1 0.15 0  1 0.1 0  1 0.05 0  0.95 0 0  0.9 0 0  0.85 0 0  0.8 0 0  0.75 0 0  0.7 0 0  0.65 0 0  0.6 0 0  0.55 0 0  0.5 0 0  0.45 0 0  0.4 0 0  0.35 0 0  0.3 0 0  0.25 0 0  0.2 0 0  0.15 0 0  0.1 0 0  0.05 0 0  0 0.05 0  0 0.1 0  0 0.15 0  0 0.2 0  0 0.25 0  0 0.3 0  0 0.35 0  0 0.4 0  0 0.45 0  0 0.5 0  0 0.55 0  0 0.6 0  0 0.65 0  0 0.7 0  0 0.75 0  0 0.8 0  0 0.85 0  0 0.9 0  0 0.95 0  0.049061 0.999381 0  0.0981119 0.998236 0  0.1471 0.995556 0  0.19585 0.990099 0  0.243964 0.980579 0  0.290938 0.966469 0  0.336655 0.948676 0  0.381806 0.929473 0  0.427731 0.912246 0  0.475527 0.901486 0  0.524473 0.901486 0  0.572269 0.912246 0  0.618194 0.929473 0  0.663345 0.948676 0  0.709062 0.966469 0  0.756036 0.980579 0  0.80415 0.990099 0  0.8529 0.995556 0  0.901888 0.998236 0  0.950939 0.999381 0  0.497989 0.458407 0  0.70997 0.655065 0  0.28818 0.658047 0  0.727162 0.276532 0  0.27913 0.27913 0  0.502977 0.224483 0  0.49896 0.693984 0  0.203325 0.468722 0  0.796675 0.468722 0  0.8140039999999999 0.796791 0  0.185996 0.796791 0  0.836713 0.163287 0  0.163287 0.163287 0  0.645361 0.5099359999999999 0  0.356688 0.511531 0  0.36633 0.153733 0  0.635009 0.156408 0  0.6256080000000001 0.774736 0  0.380454 0.774062 0  0.853703 0.611425 0  0.146297 0.611425 0  0.854015 0.335715 0  0.148578 0.340315 0  0.409807 0.32879 0  0.586087 0.338317 0  0.534873 0.570037 0  0.29843 0.397351 0  0.698702 0.39949 0  0.404976 0.618186 0  0.480416 0.106852 0  0.886722 0.716294 0  0.113278 0.716294 0  0.711883 0.859511 0  0.288117 0.859511 0  0.261422 0.107795 0  0.8802219999999999 0.891398 0  0.119778 0.891398 0  0.739513 0.107582 0  0.503114 0.797086 0  0.600241 0.655939 0  0.106206 0.507168 0  0.894384 0.507785 0  0.264697 0.558156 0  0.732433 0.555722 0  0.0978831 0.246834 0  0.9021169999999999 0.246834 0  0.739841 0.751579 0  0.260137 0.7515810000000001 0  0.597841 0.241883 0  0.406263 0.240952 0  0.448178 0.532018 0  0.912951 0.0876199 0  0.0870486 0.0876199 0  0.9071 0.415247 0  0.0926331 0.416039 0  0.424379 0.432435 0  0.585905 0.431031 0  0.7899119999999999 0.8943410000000001 0  0.210088 0.8943410000000001 0  0.564849 0.08786770000000001 0  0.200565 0.683231 0  0.799435 0.683231 0  0.507614 0.368814 0  0.809295 0.254168 0  0.193971 0.259726 0  0.911789 0.800148 0  0.0882112 0.800148 0  0.217966 0.382815 0  0.7694220000000001 0.350887 0  0.712217 0.192963 0  0.290051 0.193296 0  0.417067 0.711051 0  0.814255 0.0811655 0  0.186215 0.08139830000000001 0  0.65521 0.592117 0  0.568876 0.826407 0  0.424901 0.82992 0  0.401593 0.0803996 0  0.282683 0.47574 0  0.717357 0.475888 0  0.661475 0.07849639999999999 0  0.5493 0.167676 0  0.922836 0.647247 0  0.0771636 0.647247 0  0.332896 0.586753 0  0.07496899999999999 0.170555 0  0.925031 0.170555 0  0.5549539999999999 0.741865 0  0.332153 0.327304 0  0.66732 0.328059 0  0.821669 0.544912 0  0.178106 0.5463710000000001 0  0.6522210000000001 0.70992 0  0.343735 0.712028 0  0.552934 0.501257 0  0.327257 0.0678503 0  0.476873 0.6174500000000001 0  0.0743656 0.326 0  0.925634 0.326 0  0.469249 0.291993 0  0.639342 0.8619869999999999 0  0.360658 0.8619869999999999 0  0.833544 0.405405 0  0.778732 0.614934 0  0.216057 0.607751 0  0.445346 0.179468 0  0.0688169 0.573022 0  0.931183 0.573022 0  0.5387 0.294654 0  0.219231 0.313679 0  0.338673 0.232664 0  0.442474 0.75293 0  0.668426 0.233475 0  0.159023 0.417357 0  0.225695 0.192792 0  0.938554 0.935472 0  0.0614461 0.935472 0  0.732029 0.896514 0  0.267971 0.896514 0  0.604513 0.563806 0  0.775456 0.19304 0  0.759084 0.417415 0  0.176952 0.751782 0  0.823048 0.751782 0  0.550696 0.642259 0  0.344316 0.444566 0  0.6507230000000001 0.459286 0  0.680149 0.787736 0  0.319857 0.787752 0  0.634443 0.385685 0  0.365108 0.385492 0  0.287536 0.349897 0  0.847818 0.933729 0  0.152182 0.933729 0  0.511564 0.0633286 0  0.06484520000000001 0.467789 0  0.937808 0.467896 0  0.392647 0.558091 0  0.848174 0.45705 0  0.361019 0.64476 0  0.93451 0.74599 0  0.06549000000000001 0.74599 0  0.765128 0.80445 0  0.23487 0.804451 0  0.462063 0.396285 0  0.9328109999999999 0.855755 0  0.0671895 0.855755 0  0.542189 0.404301 0  0.233942 0.0581397 0  0.766746 0.0575274 0  0.144111 0.66618 0  0.855889 0.66618 0  0.840185 0.858368 0  0.159815 0.858368 0  0.446333 0.477753 0  0.618497 0.0505383 0  0.498998 0.507591 0  0.495893 0.160028 0  0.37227 0.304507 0  0.805476 0.307051 0  0.600315 0.712097 0  0.453924 0.0577679 0  0.256537 0.425518 0  0.6227549999999999 0.292733 0  0.310039 0.143147 0  0.206284 0.127385 0  0.157182 0.466456 0  0.6918299999999999 0.141738 0  0.949505 0.279364 0  0.0504947 0.279364 0  0.0487946 0.372395 0  0.951167 0.372282 0  0.79444 0.127149 0  0.139235 0.283776 0  0.859098 0.282296 0  0.944121 0.055879 0  0.055879 0.055879 0  0.498499 0.850396 0  0.745543 0.695028 0  0.254457 0.695028 0  0.679164 0.89622 0  0.320836 0.89622 0  0.869637 0.0521044 0  0.130363 0.0521044 0  0.85828 0.220513 0  0.14202 0.221425 0  0.650355 0.6436229999999999 0  0.709647 0.60298 0  0.682311 0.544712 0  0.417242 0.132684 0  0.94317 0.694088 0  0.0568295 0.694088 0  0.950041 0.521856 0  0.0499591 0.521856 0  0.49149 0.745797 0  0.0486859 0.12485 0  0.951314 0.12485 0  0.714462 0.350184 0  0.570253 0.599545 0  0.862133 0.558258 0  0.137748 0.559418 0  0.71295 0.0543592 0  0.758924 0.856759 0  0.241075 0.856759 0  0.949623 0.218102 0  0.0503768 0.218102 0  0.5472320000000001 0.688216 0  0.86037 0.7783870000000001 0  0.13963 0.7783870000000001 0  0.759092 0.23812 0  0.303998 0.523693 0  0.242499 0.23897 0  0.245777 0.509973 0  0.7565730000000001 0.507768 0  0.285633 0.604897 0  0.455927 0.66816 0  0.442026 0.5860610000000001 0  0.102125 0.363207 0  0.898061 0.358404 0  0.40544 0.509321 0  0.378837 0.207627 0  0.6319129999999999 0.211596 0  0.855139 0.110737 0  0.145003 0.110793 0  0.547139 0.221809 0  0.782733 0.763975 0  0.217266 0.763975 0  0.600576 0.470541 0  0.613067 0.109223 0  0.285534 0.052491 0  0.524579 0.12035 0  0.487394 0.562198 0  0.459681 0.245569 0  0.802078 0.943392 0  0.197922 0.943392 0  0.367684 0.0454058 0  0.542889 0.333328 0  0.547397 0.791353 0  0.409126 0.378371 0  0.544564 0.451337 0  0.588035 0.385738 0  0.887693 0.949369 0  0.112307 0.949369 0  0.836904 0.507286 0  0.355894 0.103621 0  0.88339 0.8450490000000001 0  0.11661 0.8450490000000001 0  0.751333 0.161718 0  0.03855 0.430204 0  0.9618409999999999 0.430071 0  0.454983 0.337885 0  0.249922 0.162042 0  0.816497 0.36105 0  0.618421 0.819148 0  0.381484 0.822726 0  0.700271 0.713682 0  0.561652 0.0381863 0  0.301773 0.713428 0  0.749231 0.311569 0  0.0455005 0.615098 0  0.954499 0.615098 0  0.420648 0.286323 0  0.815016 0.639687 0  0.184758 0.639375 0  0.5997980000000001 0.872869 0  0.399299 0.873882 0  0.900311 0.600665 0  0.0996765 0.600783 0  0.175105 0.377735 0  0.879784 0.18014 0  0.120216 0.18014 0  0.90006 0.289612 0  0.09994020000000001 0.289612 0  0.675583 0.279312 0  0.962625 0.816013 0  0.0373746 0.816013 0  0.461184 0.714384 0  0.409538 0.660626 0  0.378895 0.731342 0  0.326425 0.278338 0  0.103808 0.459729 0  0.23976 0.640101 0  0.756586 0.643618 0  0.660756 0.7513030000000001 0  0.339709 0.752242 0  0.667879 0.187236 0  0.0422776 0.895716 0  0.957722 0.895716 0  0.330485 0.190842 0  0.2941 0.235159 0  0.778981 0.557967 0  0.219766 0.56151 0  0.825 0.0366108 0  0.175 0.0366108 0  0.670698 0.8329569999999999 0  0.32929 0.833471 0  0.204174 0.424666 0  0.712998 0.237442 0  0.154229 0.516411 0  0.895913 0.138259 0  0.104087 0.138259 0  0.381893 0.468469 0  0.260454 0.383381 0  0.593457 0.145184 0  0.461098 0.803834 0  0.894418 0.7573569999999999 0  0.105582 0.7573569999999999 0  0.673419 0.0359647 0  0.546476 0.864213 0  0.453395 0.862309 0  0.404714 0.176236 0  0.176996 0.30725 0  0.712981 0.513232 0  0.214675 0.723718 0  0.785322 0.7237170000000001 0  0.503521 0.316877 0  0.724303 0.431592 0  0.755711 0.457866 0  0.414698 0.0387543 0  0.6161140000000001 0.611006 0  0.641389 0.5518110000000001 0  0.5924430000000001 0.190759 0  0.512083 0.264513 0  0.896378 0.456445 0  0.800589 0.844965 0  0.199411 0.844965 0  0.575264 0.292853 0  0.681074 0.489212 0  0.323747 0.482136 0  0.30721 0.439472 0  0.416406 0.789574 0  0.0344182 0.173358 0  0.9655820000000001 0.173358 0  0.798731 0.427526 0  0.164273 0.7142539999999999 0  0.835726 0.7142539999999999 0  0.347715 0.553539 0  0.563748 0.548065 0  0.818477 0.585388 0  0.180925 0.585274 0  0.8968739999999999 0.67459 0  0.103126 0.67459 0  0.372864 0.593462 0  0.591767 0.771834 0  0.518393 0.606705 0  0.657508 0.117889 0  0.697002 0.100605 0  0.243586 0.465654 0  0.95995 0.655552 0  0.0400497 0.655552 0  0.324752 0.626065 0  0.302705 0.564235 0  0.439994 0.09807920000000001 0  0.737999 0.387053 0  0.325285 0.0319468 0  0.371977 0.346156 0  0.907622 0.0393402 0  0.0923785 0.0393402 0  0.188463 0.210148 0  0.23927 0.279222 0  0.748667 0.938381 0  0.251333 0.938381 0  0.629039 0.346438 0  0.532872 0.825891 0  0.304642 0.0984816 0  0.0336356 0.325394 0  0.966359 0.325378 0  0.9685279999999999 0.774161 0  0.0314724 0.774161 0  0.506269 0.6523330000000001 0  0.670393 0.369365 0  0.86167 0.380893 0  0.329307 0.368941 0  0.70385 0.928813 0  0.29615 0.928813 0  0.5016119999999999 0.416073 0  0.134086 0.391025 0  0.748929 0.593865 0  0.812041 0.210801 0  0.785901 0.390257 0  0.640662 0.898147 0  0.359338 0.898147 0  0.834657 0.899541 0  0.165343 0.899541 0  0.867849 0.424071 0  0.851945 0.819578 0  0.148055 0.819578 0  0.963328 0.962627 0  0.0366723 0.962627 0  0.0910859 0.206062 0  0.908914 0.206062 0  0.969334 0.574218 0  0.0306662 0.574218 0  0.332601 0.674584 0  0.7177
[...]
<CellData  Scalars="f">
<DataArray  type="Float64"  Name="f"  format="ascii">4 4 4 4 4 4 4 4 4 4 4 4 4 4 4 4 4 4 4 4 4 4 4 4 4 4 4 4 4 4 4 4 4 4 4 4 4 4 4 4 4 4 4 4 4 4 4 4 4 4 4 4 4 4 4 4 4 1 4 4 1 4 4 4 4 4 4 4 4 4 4 4 4 4 4 4 4 4 4 4 4 4 4 4 4 4 4 4 4 4 4 4 4 4 4 4 4 4 4 4 4 4 4 4 4 4 4 4 4 4 4 4 4 1 4 4 4 4 4 4 4 4 4 4 4 4 4 4 4 4 4 4 4 4 4 4 4 4 4 4 4 4 4 4 4 4 4 4 4 4 4 4 4 4 4 4 4 4 4 4 4 4 4 4 4 4 4 4 4 4 4 4 4 4 4 4 4 4 4 4 4 4 4 4 4 4 4 4 4 4 4 4 4 4 4 4 4 4 4 4 4 4 4 4 4 4 4 4 4 4 4 4 4 4 4 4 4 4 4 4 4 4 4 4 4 4 4 4 4 4 4 4 4 4 4 4 4 4 4 4 4 4 4 4 4 4 4 4 4 4 4 4 4 4 4 4 4 4 4 4 4 4 4 4 4 4 4 4 4 4 4 4 4 4 4 4 4 4 4 4 1 4 4 4 4 4 4 4 4 4 4 4 4 4 4 4 4 4 4 4 4 4 4 4 4 4 4 4 4 4 4 4 4 4 4 4 4 4 4 4 4 4 4 4 4 4 4 4 4 4 4 4 4 4 4 4 4 4 4 4 4 4 4 4 4 4 4 4 4 4 4 4 4 4 4 4 4 4 4 4 4 4 4 4 4 4 4 4 4 4 4 4 4 4 4 4 4 4 4 4 4 4 4 4 4 4 4 4 4 4 4 4 4 4 4 4 4 4 1 4 4 1 4 4 4 4 4 4 4 4 4 4 4 2 4 3 4 4 4 4 4 4 4 4 4 3 4 4 2 4 4 4 4 4 4 4 4 4 4 4 4 4 4 4 4 4 4 4 4 4 4 4 2 4 3 4 4 0 4 4 0 4 4 4 4 4 4 4 4 4 4 4 4 4 4 4 4 4 4 4 4 4 4 4 4 4 4 4 4 4 4 4 4 4 4 4 4 4 4 4 4 4 4 4 4 2 4 3 4 4 4 4 4 4 4 4 4 4 4 4 4 4 4 4 4 4 4 4 4 4 4 4 4 4 4 4 4 4 4 4 4 4 4 4 4 4 4 4 4 0 4 4 4 4 2 4 4 3 4 4 4 4 4 4 4 4 4 4 4 4 4 4 4 4 4 4 4 4 4 4 4 4 4 4 4 4 4 4 4 4 4 4 4 4 4 4 4 4 4 4 4 4 4 4 4 4 4 4 4 4 4 4 4 4 4 4 4 4 4 4 4 4 4 4 4 4 4 4 4 4 4 4 4 4 4 4 4 4 4 4 4 4 4 4 4 4 4 4 4 4 4 4 4 4 4 4 4 4 4 4 4 4 4 4 4 4 2 4 4 3 4 4 4 4 4 4 4 4 4 4 4 4 4 4 4 4 4 4 4 4 4 4 4 4 4 4 4 4 4 4 4 4 4 4 4 4 0 4 0 4 4 4 4 4 4 4 4 4 4 4 4 4 4 4 4 4 4 4 4 4 4 4 4 4 4 4 4 4 4 4 4 4 4 1 4 4 4 4 4 4 4 4 4 4 4 4 4 4 4 4 4 4 4 4 4 4 4 0 4 0 4 4 4 4 4 4 4 4 4 4 4 4 4 4 4 4 4 4 4 4 4 4 4 4 4 4 4 4 4 4 4 4 4 4 4 4 2 4 3 4 4 4 4 4 4 4 4 2 4 4 3 4 4 4 2 4 3 4 4 4 4 4 4 4 4 4 4 4 4 4 4 4 4 4 4 4 4 4 4 4 4 4 4 4 4 4 4 4 4 4 4 4 4 4 4 4 4 4 1 4 4 4 4 4 4 4 4 4 4 4 4 4 4 4 4 4 4 4 4 4 4 4 4 4 4 4 4 4 4 4 4 4 4 4 4 4 4 4 4 4 4 4 4 4 4 4 4 4 4 4 4 4 4 4 4 4 4 4 4 4 4 4 4 4 4 4 4 4 4 4 4 4 4 4 1 4 4 4 4 4 4 4 4 4 4 4 4 4 4 4 4 4 4 4 4 4 4 4 4 4 4 4 4 4 4 4 4 4 4 1 1 4 4 4 4 4 4 4 4 4 4 4 4 4 4 4 4 4 4 4 4 4 4 4 4 4 4 4 4 4 4 4 4 4 4 4 4 4 4 4 4 4 4 4 4 4 4 4 4 4 4 4 4 4 4 4 4 4 4 4 4 4 4 4 4 4 4 4 4 4 4 4 4 4 4 4 4 4 4 4 0 0 4 4 4 4 4 4 4 4 4 4 4 4 4 4 4 4 4 4 4 4 4 4 4 4 4 4 4 4 4 4 4 4 4 4 4 4 4 4 4 4 4 4 4 4 4 4 4 4 4 4 4 4 4 4 4 4 4 4 4 0 4 4 0 4 4 4 4 4 4 4 4 4 4 1 4 4 4 4 4 4 4 4 4 4 4 4 4 4 4 4 4 4 4 4 4 4 4 4 4 4 4 4 4 4 4 4 4 4 4 4 4 4 4 4 4 4 3 4 2 4 4 4 4 4 4 4 4 4 4 4 4 4 4 4 4 4 4 4 4 3 4 4 2 4 0 4 0 4 4 4 4 4 4 4 4 4 4 4 4 4 4 4 4 4 4 4 4 4 4 4 4 4 4 4 4 4 4 4 4 4 4 4 4 4 4 4 4 4 4 4 4 4 4 3 4 2 4 4 4 4 4 4 4 4 4 4 4 4 4 4 4 4 4 4 4 4 4 4 4 4 4 4 4 4 4 4 4 4 4 4 4 4 4 4 4 4 4 4 4 4 4 4 4 4 4 4 4 4 4 4 4 4 4 4 4 4 4 4 4 1 1 4 4 4 4 0 4 0 4 4 4 4 4 4 4 4 4 4 4 4 4 4 4 4 1 1 4 4 4 4 4 4 4 4 4 4 4 4 4 4 4 4 4 4 4 4 4 4 4 4 4 4 4 4 4 4 4 4 4 4 4 4 3 2 0 0 4 4 4 4 4 4 4 4 4 4 4 4 4 4 4 4 4 4 4 4 4 4 4 4 4 4 4 4 4 4 2 4 4 3 1 4 4 4 4 4 4 4 3 2 4 4 2 1 4 1 3 4 4 2 4 3 4 4 4 4 4 3 4 2 4 4 4 4 2 4 4 3 4 4 4 4 4 4 4 4 4 0 4 4 0 4 1 4 4 0 0 4 4 4 2 3 4 4 4 4 4 4 4 4 4 4 4 4 4 4 4 4 4 4 4 4 4 4 4 4 4 4 4 4 4 4 4 4 4 4 4 4 4 4 4 4 4 4 4 4 4 4 4 4 4 4 4 4 4 4 4 4 4 4 4 4 4 4 4 4 4 4 4 4 4 4 4 4 4 4 4 4 4 4 4 4 4 4 </DataArray>
</CellData>
</Piece>
</UnstructuredGrid>
</VTKFile>