<?xml version="1.0"?>
<VTKFile type="UnstructuredGrid"  version="0.1"  >
<UnstructuredGrid>
<Piece  NumberOfPoints="550" NumberOfCells="1017">
<Points>
<DataArray  type="Float64"  NumberOfComponents="3"  format="ascii">0 0 0  0 1 0  1 1 0  1 0 0  1 0.95 0  1 0.9 0  1 0.85 0  1 0.8 0  1 0.75 0  1 0.7 0  1 0.65 0  1 0.6 0  1 0.55 0  1 0.5 0  1 0.45 0  1 0.4 0  1 0.35 0  1 0.3 0  1 0.25 0  1 0.2 0  1 0.15 0  1 0.1 0  1 0.05 0  0.95 0 0  0.9 0 0  0.85 0 0  0.8 0 0  0.75 0 0  0.7 0 0  0.65 0 0  0.6 0 0  0.55 0 0  0.5 0 0  0.45 0 0  0.4 0 0  0.35 0 0  0.3 0 0  0.25 0 0  0.2 0 0  0.15 0 0  0.1 0 0  0.05 0 0  0 0.05 0  0 0.1 0  0 0.15 0  0 0.2 0  0 0.25 0  0 0.3 0  0 0.35 0  0 0.4 0  0 0.45 0  0 0.5 0  0 0.55 0  0 0.6 0  0 0.65 0  0 0.7 0  0 0.75 0  0 0.8 0  0 0.85 0  0 0.9 0  0 0.95 0  0.049061 0.999381 0  0.0981119 0.998236 0  0.1471 0.995556 0  0.19585 0.990099 0  0.243964 0.980579 0  0.290938 0.966469 0  0.336655 0.948676 0  0.381806 0.929473 0  0.427731 0.912246 0  0.475527 0.901486 0  0.524473 0.901486 0  0.572269 0.912246 0  0.618194 0.929473 0  0.663345 0.948676 0  0.709062 0.966469 0  0.756036 0.980579 0  0.80415 0.990099 0  0.8529 0.995556 0  0.901888 0.998236 0  0.950939 0.999381 0  0.497989 0.458407 0  0.70997 0.655065 0  0.28818 0.658047 0  0.727162 0.276532 0  0.27913 0.27913 0  0.502977 0.224483 0  0.49896 0.693984 0  0.203325 0.468722 0  0.796675 0.468722 0  0.8140039999999999 0.796791 0  0.185996 0.796791 0  0.836713 0.163287 0  0.163287 0.163287 0  0.645361 0.5099359999999999 0  0.356688 0.511531 0  0.36633 0.153733 0  0.635009 0.156408 0  0.6256080000000001 0.774736 0  0.380454 0.774062 0  0.853703 0.611425 0  0.146297 0.611425 0  0.854015 0.335715 0  0.148578 0.340315 0  0.409807 0.32879 0  0.586087 0.338317 0  0.534873 0.570037 0  0.29843 0.397351 0  0.698702 0.39949 0  0.404976 0.618186 0  0.480416 0.106852 0  0.886722 0.716294 0  0.113278 0.716294 0  0.711883 0.859511 0  0.288117 0.859511 0  0.261422 0.107795 0  0.8802219999999999 0.891398 0  0.119778 0.891398 0  0.739513 0.107582 0  0.503114 0.797086 0  0.600241 0.655939 0  0.106206 0.507168 0  0.894384 0.507785 0  0.264697 0.558156 0  0.732433 0.555722 0  0.0978831 0.246834 0  0.9021169999999999 0.246834 0  0.739841 0.751579 0  0.260137 0.7515810000000001 0  0.597841 0.241883 0  0.406263 0.240952 0  0.448178 0.532018 0  0.912951 0.0876199 0  0.0870486 0.0876199 0  0.9071 0.415247 0  0.0926331 0.416039 0  0.424379 0.432435 0  0.585905 0.431031 0  0.7899119999999999 0.8943410000000001 0  0.210088 0.8943410000000001 0  0.564849 0.08786770000000001 0  0.200565 0.683231 0  0.799435 0.683231 0  0.507614 0.368814 0  0.809295 0.254168 0  0.193971 0.259726 0  0.911789 0.800148 0  0.0882112 0.800148 0  0.217966 0.382815 0  0.7694220000000001 0.350887 0  0.712217 0.192963 0  0.290051 0.193296 0  0.417067 0.711051 0  0.814255 0.0811655 0  0.186215 0.08139830000000001 0  0.65521 0.592117 0  0.568876 0.826407 0  0.424901 0.82992 0  0.401593 0.0803996 0  0.282683 0.47574 0  0.717357 0.475888 0  0.661475 0.07849639999999999 0  0.5493 0.167676 0  0.922836 0.647247 0  0.0771636 0.647247 0  0.332896 0.586753 0  0.07496899999999999 0.170555 0  0.925031 0.170555 0  0.5549539999999999 0.741865 0  0.332153 0.327304 0  0.66732 0.328059 0  0.821669 0.544912 0  0.178106 0.5463710000000001 0  0.6522210000000001 0.70992 0  0.343735 0.712028 0  0.552934 0.501257 0  0.327257 0.0678503 0  0.476873 0.6174500000000001 0  0.0743656 0.326 0  0.925634 0.326 0  0.469249 0.291993 0  0.639342 0.8619869999999999 0  0.360658 0.8619869999999999 0  0.833544 0.405405 0  0.778732 0.614934 0  0.216057 0.607751 0  0.445346 0.179468 0  0.0688169 0.573022 0  0.931183 0.573022 0  0.5387 0.294654 0  0.219231 0.313679 0  0.338673 0.232664 0  0.442474 0.75293 0  0.668426 0.233475 0  0.159023 0.417357 0  0.225695 0.192792 0  0.938554 0.935472 0  0.0614461 0.935472 0  0.732029 0.896514 0  0.267971 0.896514 0  0.604513 0.563806 0  0.775456 0.19304 0  0.759084 0.417415 0  0.176952 0.751782 0  0.823048 0.751782 0  0.550696 0.642259 0  0.344316 0.444566 0  0.6507230000000001 0.459286 0  0.680149 0.787736 0  0.319857 0.787752 0  0.634443 0.385685 0  0.365108 0.385492 0  0.287536 0.349897 0  0.847818 0.933729 0  0.152182 0.933729 0  0.511564 0.0633286 0  0.06484520000000001 0.467789 0  0.937808 0.467896 0  0.392647 0.558091 0  0.848174 0.45705 0  0.361019 0.64476 0  0.93451 0.74599 0  0.06549000000000001 0.74599 0  0.765128 0.80445 0  0.23487 0.804451 0  0.462063 0.396285 0  0.9328109999999999 0.855755 0  0.0671895 0.855755 0  0.542189 0.404301 0  0.233942 0.0581397 0  0.766746 0.0575274 0  0.144111 0.66618 0  0.855889 0.66618 0  0.840185 0.858368 0  0.159815 0.858368 0  0.446333 0.477753 0  0.618497 0.0505383 0  0.498998 0.507591 0  0.495893 0.160028 0  0.37227 0.304507 0  0.805476 0.307051 0  0.600315 0.712097 0  0.453924 0.0577679 0  0.256537 0.425518 0  0.6227549999999999 0.292733 0  0.310039 0.143147 0  0.206284 0.127385 0  0.157182 0.466456 0  0.6918299999999999 0.141738 0  0.949505 0.279364 0  0.0504947 0.279364 0  0.0487946 0.372395 0  0.951167 0.372282 0  0.79444 0.127149 0  0.139235 0.283776 0  0.859098 0.282296 0  0.944121 0.055879 0  0.055879 0.055879 0  0.498499 0.850396 0  0.745543 0.695028 0  0.254457 0.695028 0  0.679164 0.89622 0  0.320836 0.89622 0  0.869637 0.0521044 0  0.130363 0.0521044 0  0.85828 0.220513 0  0.14202 0.221425 0  0.650355 0.6436229999999999 0  0.709647 0.60298 0  0.682311 0.544712 0  0.417242 0.132684 0  0.94317 0.694088 0  0.0568295 0.694088 0  0.950041 0.521856 0  0.0499591 0.521856 0  0.49149 0.745797 0  0.0486859 0.12485 0  0.951314 0.12485 0  0.714462 0.350184 0  0.570253 0.599545 0  0.862133 0.558258 0  0.137748 0.559418 0  0.71295 0.0543592 0  0.758924 0.856759 0  0.241075 0.856759 0  0.949623 0.218102 0  0.0503768 0.218102 0  0.5472320000000001 0.688216 0  0.86037 0.7783870000000001 0  0.13963 0.7783870000000001 0  0.759092 0.23812 0  0.303998 0.523693 0  0.242499 0.23897 0  0.245777 0.509973 0  0.7565730000000001 0.507768 0  0.285633 0.604897 0  0.455927 0.66816 0  0.442026 0.5860610000000001 0  0.102125 0.363207 0  0.898061 0.358404 0  0.40544 0.509321 0  0.378837 0.207627 0  0.6319129999999999 0.211596 0  0.855139 0.110737 0  0.145003 0.110793 0  0.547139 0.221809 0  0.782733 0.763975 0  0.217266 0.763975 0  0.600576 0.470541 0  0.613067 0.109223 0  0.285534 0.052491 0  0.524579 0.12035 0  0.487394 0.562198 0  0.459681 0.245569 0  0.802078 0.943392 0  0.197922 0.943392 0  0.367684 0.0454058 0  0.542889 0.333328 0  0.547397 0.791353 0  0.409126 0.378371 0  0.544564 0.451337 0  0.588035 0.385738 0  0.887693 0.949369 0  0.112307 0.949369 0  0.836904 0.507286 0  0.355894 0.103621 0  0.88339 0.8450490000000001 0  0.11661 0.8450490000000001 0  0.751333 0.161718 0  0.03855 0.430204 0  0.9618409999999999 0.430071 0  0.454983 0.337885 0  0.249922 0.162042 0  0.816497 0.36105 0  0.618421 0.819148 0  0.381484 0.822726 0  0.700271 0.713682 0  0.561652 0.0381863 0  0.301773 0.713428 0  0.749231 0.311569 0  0.0455005 0.615098 0  0.954499 0.615098 0  0.420648 0.286323 0  0.815016 0.639687 0  0.184758 0.639375 0  0.5997980000000001 0.872869 0  0.399299 0.873882 0  0.900311 0.600665 0  0.0996765 0.600783 0  0.175105 0.377735 0  0.879784 0.18014 0  0.120216 0.18014 0  0.90006 0.289612 0  0.09994020000000001 0.289612 0  0.675583 0.279312 0  0.962625 0.816013 0  0.0373746 0.816013 0  0.461184 0.714384 0  0.409538 0.660626 0  0.378895 0.731342 0  0.326425 0.278338 0  0.103808 0.459729 0  0.23976 0.640101 0  0.756586 0.643618 0  0.660756 0.7513030000000001 0  0.339709 0.752242 0  0.667879 0.187236 0  0.0422776 0.895716 0  0.957722 0.895716 0  0.330485 0.190842 0  0.2941 0.235159 0  0.778981 0.557967 0  0.219766 0.56151 0  0.825 0.0366108 0  0.175 0.0366108 0  0.670698 0.8329569999999999 0  0.32929 0.833471 0  0.204174 0.424666 0  0.712998 0.237442 0  0.154229 0.516411 0  0.895913 0.138259 0  0.104087 0.138259 0  0.381893 0.468469 0  0.260454 0.383381 0  0.593457 0.145184 0  0.461098 0.803834 0  0.894418 0.7573569999999999 0  0.105582 0.7573569999999999 0  0.673419 0.0359647 0  0.546476 0.864213 0  0.453395 0.862309 0  0.404714 0.176236 0  0.176996 0.30725 0  0.712981 0.513232 0  0.214675 0.723718 0  0.785322 0.7237170000000001 0  0.503521 0.316877 0  0.724303 0.431592 0  0.755711 0.457866 0  0.414698 0.0387543 0  0.6161140000000001 0.611006 0  0.641389 0.5518110000000001 0  0.5924430000000001 0.190759 0  0.512083 0.264513 0  0.896378 0.456445 0  0.800589 0.844965 0  0.199411 0.844965 0  0.575264 0.292853 0  0.681074 0.489212 0  0.323747 0.482136 0  0.30721 0.439472 0  0.416406 0.789574 0  0.0344182 0.173358 0  0.9655820000000001 0.173358 0  0.798731 0.427526 0  0.164273 0.7142539999999999 0  0.835726 0.7142539999999999 0  0.347715 0.553539 0  0.563748 0.548065 0  0.818477 0.585388 0  0.180925 0.585274 0  0.8968739999999999 0.67459 0  0.103126 0.67459 0  0.372864 0.593462 0  0.591767 0.771834 0  0.518393 0.606705 0  0.657508 0.117889 0  0.697002 0.100605 0  0.243586 0.465654 0  0.95995 0.655552 0  0.0400497 0.655552 0  0.324752 0.626065 0  0.302705 0.564235 0  0.439994 0.09807920000000001 0  0.737999 0.387053 0  0.325285 0.0319468 0  0.371977 0.346156 0  0.907622 0.0393402 0  0.0923785 0.0393402 0  0.188463 0.210148 0  0.23927 0.279222 0  0.748667 0.938381 0  0.251333 0.938381 0  0.629039 0.346438 0  0.532872 0.825891 0  0.304642 0.0984816 0  0.0336356 0.325394 0  0.966359 0.325378 0  0.9685279999999999 0.774161 0  0.0314724 0.774161 0  0.506269 0.6523330000000001 0  0.670393 0.369365 0  0.86167 0.380893 0  0.329307 0.368941 0  0.70385 0.928813 0  0.29615 0.928813 0  0.5016119999999999 0.416073 0  0.134086 0.391025 0  0.748929 0.593865 0  0.812041 0.210801 0  0.785901 0.390257 0  0.640662 0.898147 0  0.359338 0.898147 0  0.834657 0.899541 0  0.165343 0.899541 0  0.867849 0.424071 0  0.851945 0.819578 0  0.148055 0.819578 0  0.963328 0.962627 0  0.0366723 0.962627 0  0.0910859 0.206062 0  0.908914 0.206062 0  0.969334 0.574218 0  0.0306662 0.574218 0  0.332601 0.674584 0  0.7177
[...]
<PointData  Scalars="f_10"> 
<DataArray  type="Float64"  Name="f_10"  format="ascii">5.2351808997889576e-02  -1.5407343928750468e-10  -3.2233290418450589e-13  1.4226197429325054e-10  2.3969410754311309e-14  -6.7833097445154185e-13  -1.0545655890760780e-12  -6.9646424998864300e-13  2.1133843977770997e-12  1.9328110422560841e-12  9.3374696167464460e-12  9.3223800033959631e-12  1.2592365942857812e-11  -1.0288142072401553e-11  -7.3955249815907401e-12  1.1336908153282893e-11  -2.1816298729585796e-11  -3.3878945103829057e-11  6.2534973916706446e-11  -5.9750790948036137e-11  -1.2885391163017125e-10  1.6109560687200191e-10  2.7269129493108215e-10  2.7710213600196367e-10  3.6346749807186165e-10  2.2727630633709488e-10  2.9013646914854343e-10  -6.5720296615690208e-10  3.6764739785302781e-09  4.4196942446824144e-08  -1.9358140561808832e-08  -1.6346310125709916e-08  -4.7835791339054941e-06  -1.6013004504608550e-05  3.6296973587418041e-05  8.5550439492103686e-05  1.1259803920215684e-03  -4.1464126093860732e-03  1.6873677455522162e-02  -1.2358458997455461e-02  7.9489816145136116e-02  1.2338876331860563e-01  1.4908966113450214e-01  7.2575566646215076e-02  -1.6885961157761680e-02  2.4727069289478048e-03  -2.3557568661694526e-04  -9.0039466469273821e-05  -5.8430293876267948e-06  3.6921477696253401e-07  -9.4873850726989920e-06  -3.5217389020765074e-06  -1.0722561134487993e-05  -8.6863922800082826e-06  8.9438362501588744e-07  6.0176194600968167e-08  3.2690802820291212e-08  1.9736191335222940e-09  -5.1801991351458774e-09  9.5628746980018947e-10  1.2089180209659034e-09  2.3611385338293179e-09  1.0558463183335760e-09  -1.6844587514094293e-08  -8.6947277502228751e-09  -2.8863262601951135e-10  -3.2749063056972865e-11  1.1438678427658157e-10  -1.7462577075196045e-09  -5.8103961299019568e-10  -5.0557463770935653e-11  1.1693521707851702e-09  1.2909756491130448e-10  6.5189675527090084e-10  1.1391157502464827e-10  2.5957303632570919e-11  -1.9045950365805449e-11  -1.4848378949688116e-11  -3.4934934862739473e-11  -1.6812756001273474e-13  2.2789083216437020e-12  -6.1945050468425048e-08  4.5659769836832522e-09  -1.9363239828719969e-07  7.2879667672680927e-08  7.5308182984742044e-04  2.2773486618688924e-05  -1.9051200637606415e-07  4.4511170114579283e-04  1.7838513821503043e-09  -1.2203402412557446e-10  -5.6504869215796787e-08  7.3401241301696110e-09  2.8970745547119339e-02  3.4688945266005745e-10  1.3607645286990368e-05  9.6376023783416428e-04  9.4256998965564285e-07  -1.7262366014312233e-08  -5.5435517643778560e-08  5.9716974835757803e-10  2.2582507346791923e-05  9.4741794542577702e-10  8.0279003427107583e-04  -3.1153153900400228e-05  1.3671545713153462e-06  -8.8883479764906135e-08  2.1706259412042491e-05  4.4059356576283907e-08  -5.1779378010648042e-06  4.0618824809615000e-05  -9.0258683464016477e-12  -2.4417087033431646e-06  5.3086455541960431e-10  5.2350791855503730e-09  1.6924223484376510e-02  -4.6709212199854328e-12  4.3275903951058859e-08  -1.6800985285165884e-09  -1.6249134851620721e-08  9.1483144394640173e-08  -1.6235235872833574e-04  1.1949069794048942e-10  -4.7288613459778844e-05  -9.9931914573303902e-10  -1.1775141745109859e-02  -2.6177532741185677e-09  -2.3400752145430649e-09  1.5639123177050660e-07  -1.3019858417375963e-06  2.1440038612215750e-04  3.1612146161616147e-07  -4.5097380789772601e-10  -7.5671030744014392e-02  1.6398955603161515e-10  -1.0976315135865486e-04  6.8177579743862745e-06  2.9952974949959954e-07  -1.3222111013544846e-10  -4.9842102121486756e-08  1.6509504689346711e-06  1.5211150394044580e-06  7.6202337769623808e-10  4.2999855121738042e-07  7.1260772917229440e-09  2.3399698727030373e-03  -8.6441097665878772e-12  -8.2634862623918805e-08  2.1243276225394310e-04  9.4806253499458241e-09  9.3380432435360865e-08  6.9475689518787706e-03  -5.8616932857235320e-07  3.1850595180171175e-09  4.0821596125855675e-02  2.0820396299893128e-08  2.3532671665624860e-09  -1.7255504475160248e-08  3.6055890930345894e-04  9.7528049465179801e-05  7.0896158214919647e-09  2.6005465842817861e-07  -2.1857966222495179e-07  1.0424764231942472e-10  -2.4345583426969927e-06  -2.0545778099135407e-05  -3.3999263290776495e-02  -1.3488747634026743e-09  -6.4667554799452781e-08  9.7647945037889397e-05  1.6555900009535466e-07  1.6788853870674244e-10  5.0097640102121046e-05  1.6445715191661956e-08  -2.1392576623882730e-07  7.5832965389040390e-09  4.2417907945007972e-03  -1.0811728174227754e-06  -6.9627548498356502e-04  -3.6144342077779434e-10  7.3976870877033776e-06  4.9793680810173549e-09  -1.3308870496890415e-08  2.1866959684475106e-09  2.8196435521910694e-09  -6.9266708638323471e-06  1.4823566517071956e-04  -1.0398888445226507e-04  1.1614299873524182e-10  4.3974013711591215e-06  4.7561240151550291e-04  1.7457494555664021e-03  -1.1458500071834542e-07  2.5423389540254750e-07  3.1247573526105169e-04  1.7816932178052473e-02  8.0217564251804557e-13  1.7911459816535160e-08  -1.4521106322247191e-10  6.8114396343896808e-09  -9.6540101889963657e-10  2.9642374603274092e-08  9.0124469807509928e-09  1.2794517066956682e-07  -1.6892075796624411e-10  -2.5199817824184584e-07  3.3814331734706699e-05  8.3017304626898440e-08  -9.0763924969448224e-09  8.6847397573912673e-08  4.8871864413275309e-07  3.9523354233067312e-05  8.6699813093997166e-05  -2.0615094865353088e-10  -1.0202309947013107e-07  -1.2162254071565646e-05  -4.7865918554787080e-05  -6.9796798509700170e-11  -5.9482333898336633e-06  3.4578987339131077e-11  -5.6671403892195723e-06  1.0084706903286547e-11  1.8113805388537850e-07  -1.3814646518910055e-09  -2.2239158957955914e-08  -5.4312645180574663e-06  -1.1922791129704734e-11  2.9958250957974136e-08  -5.1707082536884445e-07  2.2701013794695517e-02  6.6834598974688575e-09  2.3833711331617491e-06  2.3814639190603697e-10  -3.1962169677620398e-10  -1.6347907630564402e-07  -1.1355885695510461e-06  -4.8028771326451906e-07  1.5617467349839407e-07  -4.9853899779440929e-06  2.2336262593105187e-04  5.3289078875050982e-09  3.3598386354997743e-09  -4.7078623446080222e-05  1.8933150987238481e-04  1.2944526109619068e-06  4.5826308532310816e-04  2.2866370245316462e-02  -2.4896611811447565e-04  1.4722413969898876e-07  4.9468163357039090e-12  9.8422911899577535e-04  -5.6223589023361045e-05  -7.3045839317744518e-11  1.2823466920734106e-08  -1.7078891351704772e-03  -3.6592987850813104e-09  1.5298622574805165e-09  5.9878007364377284e-01  -7.2745803052790534e-09  2.0906888718912319e-09  -3.0164383045378548e-07  5.1491586830611745e-10  -2.4602776799161678e-09  2.5494433925690735e-09  1.9211156984656388e-01  5.6360545070054827e-09  8.4106267781667889e-03  1.6648879414068791e-08  3.1318425255160310e-09  -4.9433735156671508e-10  -9.3187096758239727e-05  1.1757337624529622e-11  1.7608392261559087e-07  -3.4539378021965140e-12  1.2310905260935025e-05  -1.4318917677682189e-07  1.4302119606969380e-01  -1.6802806383667870e-10  -8.5308400662472267e-09  5.4526362750065262e-08  7.4982753196349324e-11  -1.3060614220665199e-04  -9.3423762231827882e-09  -1.2328884136602036e-10  -8.6348872308582388e-09  -5.3452987958900373e-10  -7.6758062802623954e-04  1.8697588464092072e-08  -1.5993907425325583e-11  -5.3443346493416508e-07  2.3544627846558593e-08  -3.4515965111494110e-05  1.5114519998782807e-03  1.3085698130316603e-04  -2.0674389694814721e-09  -1.3376840113064785e-05  -8.3045766665179025e-07  2.2449567851612399e-06  7.7257917663709277e-04  3.8745158204254142e-10  8.7927051360137388e-07  3.1563762453335945e-04  -6.0171950051581416e-07  -5.8979374284403745e-09  -5.9575417217347965e-02  -7.2861443734725753e-06  1.4138849380004106e-09  4.7179513988100292e-08  -9.2447705324994072e-08  5.2910180537995752e-07  -7.5788691343266559e-03  -1.2161439495982702e-05  -4.7717180136115161e-07  -1.3249814314143671e-05  -1.1060680395789381e-11  1.6419221880250673e-09  -9.9474125842078601e-04  -3.3444319580683771e-07  -2.2724032441319838e-08  1.0160800842204893e-05  -5.8302089852568493e-08  -3.4969229322089175e-07  6.5006214369429423e-11  3.1974265373359399e-08  -3.6985305488135157e-10  -3.7575776153504396e-04  3.6203534547692956e-11  -7.5929387116074224e-08  -3.7910265122664818e-08  4.5508740574759339e-05  -9.4541357398210271e-12  9.2346499396227882e-06  -7.8071326251339165e-03  -3.0581740270028860e-09  -8.0081356381057242e-09  3.2047995291334016e-08  -6.6961541979846815e-09  8.1064582314213013e-07  3.3715104605898902e-07  -1.6088780775791427e-08  8.2027316221601858e-06  -1.0635758296162254e-11  -9.8650309442415653e-06  -1.0553194332800155e-09  -4.6303438570300872e-06  -4.1692500454702135e-11  2.4810464247659388e-09  -1.1661237962132222e-10  3.0789311021067509e-05  -1.6984761123250955e-04  -6.2897882832876172e-09  -2.5622690064822866e-02  2.4669002215029809e-09  5.1984232324094083e-03  -2.8344932373485126e-07  7.7195372606693840e-12  2.5076000561753679e-08  5.0057964671682872e-07  1.8839933833461768e-06  -1.1223959195427857e-07  -2.4301845858938875e-04  1.4296087531835786e-04  4.0329534528900830e-07  -3.0471536350226605e-09  -1.2640009973625403e-09  1.5934255194222951e-07  -2.5842858551483416e-07  2.7325891990366151e-09  7.6490075102560667e-12  -3.5403345551265433e-03  -1.4194916532429217e-03  7.9122525759268443e-10  7.5216639969699304e-06  -3.0707835022779738e-09  -8.1062447390597786e-02  -4.7752766340492184e-09  2.4973123753114652e-09  -3.1780095113015410e-04  -9.7747700587798878e-08  2.1735620500520233e-04  4.0124150187483858e-09  3.3159959055413545e-02  -8.1921680486203451e-06  -1.0805287680193758e-04  -3.5840765983839449e-06  4.5845555022964069e-08  -1.7164249975846161e-11  4.8469091011490759e-07  -2.8381200816523339e-08  -2.8467824879459307e-09  3.3346101267138313e-09  -3.8493398117275422e-04  -3.7812938045043103e-04  5.2576807217273569e-09  -3.4451092707763140e-07  -7.9886422835136410e-10  -4.3161983277930437e-06  -1.1533343219008756e-08  -1.5911542680967644e-09  1.2686794118129907e-04  -5.2777595192839926e-08  -9.1238299956805372e-09  2.5778765251441123e-06  -9.1301741805662638e-06  7.4136521391919961e-11  4.3857942983928857e-10  7.5684621334894971e-08  -3.9744264490449623e-06  -2.3036277892676685e-08  -2.2033956545290090e-05  -6.9774233125147021e-05  -2.0483789545442981e-08  -1.0723449612535112e-02  7.0067488490744817e-10  -3.0500891417126829e-09  -8.4261586224756532e-07  -1.2654064788101001e-10  4.4218633512957181e-07  -1.2515472900270408e-09  -9.3840608242121429e-10  -2.7698703881840163e-06  -3.7581283618630013e-11  5.3312523158526014e-06  1.1782450528580854e-05  3.2692007355447686e-08  3.8585812917389288e-07  -5.6174035642361803e-07  -9.7829071179736231e-09  -3.0908697330515997e-04  -4.1055011702630167e-11  -2.2834940653359813e-06  1.2677777627092841e-05  3.8660656442513858e-05  -8.9174069287775465e-05  -1.3005236351447218e-08  -5.2466400129489723e-06  -7.3090485657791333e-05  -1.8772373658607705e-09  -3.6536229707100470e-01  -9.8819610981366220e-03  -1.4937589906549537e-03  9.8841564189273803e-11  4.5498950679780061e-09  -9.1780288277082899e-07  1.2524644994624519e-08  -6.4733307046095662e-03  7.7934278544709870e-05  1.5909766531149966e-10  -3.9312295688630939e-12  -4.4601955542997631e-08  4.5914936899629234e-07  -6.2542685307389449e-08  -4.5589137181477845e-10  -5.0719890256973060e-05  -1.9121827129075642e-10  -1.9194425948546452e-09  1.4005751257031526e-06  -3.8869618503671848e-04  -1.9209435165916434e-09  -1.5037409099790774e-08  -1.8808887509469168e-09  -2.5888751582468128e-09  6.6623543513721222e-09  2.6751864579558178e-10  1.1682365323375188e-07  -6.4243130409815667e-10  1.1006291397049892e-10  3.0438347636920725e-07  3.5864950753560287e-12  -1.1376266645004654e-10  2.3316438018507454e-02  2.9374294914422976e-09  -5.1590236541835633e-11  4.5043816793586789e-05  -5.3039951995357750e-07  3.5008083520063803e-09  -2.1106795855914322e-08  1.5122302379819778e-06  -1.5099633176390183e-04  -1.3537160361130100e-07  -7.5558065522139137e-12  2.1351691054430386e-08  -2.6797576775971761e-04  1.4691576873654944e-10  1.3406598399698933e-08  1.1615455083258509e-07  -2.1618396794720589e-08  -9.5284427527375169e-09  -1.1987305276800155e-10  1.6696245238939373e-04  -4.4163291238218527e-08  -4.4513055704346195e-02  2.9248053566455919e-09  -2.6627970056927237e-04  3.5518952641578086e-06  -1.6034773139146948e-05  -2.1931641544438927e-10  2.8767259922972117e-05  -4.6311119017900330e-05  -1.0026098461862449e-04  -3.6728933254036839e-01  -6.5401964519917770e-10  -1.7845604783110519e-03  -8.7540415928087784e-10  5.5435453445044976e-06  -5.9594390443651984e-05  -1.7085560110403249e-11  -1.4017735978299288e-08  -2.8121870788226104e-07  6.4933660456720850e-09  -9.4134734050772593e-06  -4.5582317294009130e-07  7.3441457188773329e-08  7.1128421799623407e-08  -1.6440308565563978e-08  -2.0044330986487157e-07  -4.2596958381122904e-07  1.5731079467554980e-08  -4.8173126319428312e-08  -2.2167917301815547e-05  6.0342809877743716e-06  5.7467109891591697e-08  1.2004072967352445e-10  1.5487278982909028e-04  9.5206172140562974e-08  -6.5047054885432939e-04  -7.4535331864933951e-08  2.2250382529245503e-07  3.9501834057568889e-06  -4.3170005113181047e-09  6.0618274547909729e-08  1.4777422964286634e-07  -2.3576176186945068e-02  9.5171817526726187e-07  8.9840955426343815e-11  9.1509265949121630e-07  -9.8253659262091795e-10  -4.8621117113261997e-01  -9.8640484493998834e-09  -1.4492769550642125e-08  -8.7485532355577201e-03  -6.5398163686529720e-09  -3.2043042984342538e-12  2.0362879982242970e-05  -3.5403283800094726e-08  -2.7249829886975095e-09  -8.9695658325536871e-12  -3.9494026835552426e-08  3.9701536234236396e-11  1.4125385144671594e-05  </DataArray> 
</PointData> 
</Piece>
</UnstructuredGrid>
</VTKFile>