<?xml version="1.0"?>
<VTKFile type="UnstructuredGrid"  version="0.1"  >
<UnstructuredGrid>
<Piece  NumberOfPoints="45" NumberOfCells="68">
<Points>
<DataArray  type="Float64"  NumberOfComponents="3"  format="ascii">0 0 0  0 10 0  10 10 0  10 0 0  0 2 0  0 4 0  0 6 0  0 8 0  2 10 0  4 10 0  6 10 0  8 10 0  10 8 0  10 6 0  10 4 0  10 2 0  8 0 0  6 0 0  4 0 0  2 0 0  5 5 0  2.875 2.875 0  2.875 7.125 0  7.125 2.875 0  7.125 7.125 0  5.10326 2.03936 0  7.96064 5.10326 0  2.03936 4.89674 0  4.89674 7.96064 0  1.67083 1.67083 0  1.67083 8.32917 0  8.40109 1.59891 0  8.32917 8.32917 0  4.30344 3.68343 0  3.83205 5.75529 0  6.31452 4.31034 0  5.75424 6.16953 0  1.31704 6.87018 0  3.12982 1.31704 0  6.87018 8.68296 0  1.325 3.12063 0  6.92587 1.30265 0  8.69735 3.11543 0  3.12063 8.675000000000001 0  8.675000000000001 6.87937 0  </DataArray>
</Points>
<Cells>
<DataArray  type="UInt32"  Name="connectivity"  format="ascii">25 33 35  23 25 35  21 27 33  27 33 34  26 35 36  24 26 36  22 28 34  28 34 36  5 6 27  9 10 28  17 18 25  13 14 26  0 4 29  1 8 30  0 19 29  1 7 30  3 15 31  3 16 31  2 12 32  2 11 32  5 27 40  9 28 43  21 27 40  21 25 38  17 25 41  18 25 38  22 28 43  23 25 41  13 26 44  14 26 42  23 26 42  24 26 44  22 27 37  6 27 37  24 28 39  10 28 39  21 25 33  20 33 35  20 33 34  22 27 34  23 26 35  20 35 36  24 28 36  20 34 36  4 5 40  8 9 43  18 19 38  6 7 37  14 15 42  16 17 41  12 13 44  10 11 39  4 29 40  8 30 43  19 29 38  7 30 37  15 31 42  16 31 41  12 32 44  11 32 39  22 30 37  21 29 38  21 29 40  24 32 39  23 31 41  23 31 42  22 30 43  24 32 44  </DataArray>
<DataArray  type="UInt32"  Name="offsets"  format="ascii">3 6 9 12 15 18 21 24 27 30 33 36 39 42 45 48 51 54 57 60 63 66 69 72 75 78 81 84 87 90 93 96 99 102 105 108 111 114 117 120 123 126 129 132 135 138 141 144 147 150 153 156 159 162 165 168 171 174 177 180 183 186 189 192 195 198 201 204 </DataArray>
<DataArray  type="UInt8"  Name="types"  format="ascii">5 5 5 5 5 5 5 5 5 5 5 5 5 5 5 5 5 5 5 5 5 5 5 5 5 5 5 5 5 5 5 5 5 5 5 5 5 5 5 5 5 5 5 5 5 5 5 5 5 5 5 5 5 5 5 5 5 5 5 5 5 5 5 5 5 5 5 5 </DataArray>
</Cells>
<PointData  Scalars="f_10"> 
<DataArray  type="Float64"  Name="f_10"  format="ascii">-2.8824509015241018e-03  -2.2204852929864449e-03  -1.8754908079944893e-03  -2.6267692382408126e-03  1.0252901161068483e-02  1.7484117584625203e-02  1.6083547135675818e-02  9.4743555701530431e-03  8.1795445565467466e-03  1.3244584269542876e-02  1.2267895029322722e-02  6.8676219493716177e-03  6.9768016330781892e-03  8.4063028438926563e-03  1.5037086863814724e-02  7.3134807243891223e-03  8.5795364699284057e-03  7.3474969858310897e-03  2.2124269734074973e-02  1.2591272512808041e-02  5.6164745613501244e-01  2.5070968814853906e-01  1.9343278334225342e-01  1.6565770095380028e-01  1.4643625978982031e-01  1.5619368611908108e-01  1.1254247819966771e-01  1.1276076192231667e-01  9.4461805944024424e-02  3.8333248999446734e-02  2.9434574176797179e-02  3.6487616440584750e-02  2.6677286868641483e-02  -3.7202037456944292e-01  -3.1404770826570311e-01  -2.5881484016854894e-01  -2.4432776218537738e-01  -1.1583427735092583e-01  -1.5311786953273304e-01  -9.1143833804410157e-02  -1.3393345740547813e-01  -1.1048703458998553e-01  -1.0742030995761971e-01  -1.0517359903156578e-01  -9.1079898961574438e-02  </DataArray> 
</PointData> 
</Piece>
</UnstructuredGrid>
</VTKFile>