<?xml version="1.0"?>
<VTKFile type="UnstructuredGrid"  version="0.1"  >
<UnstructuredGrid>
<Piece  NumberOfPoints="550" NumberOfCells="1017">
<Points>
<DataArray  type="Float64"  NumberOfComponents="3"  format="ascii">0 0 0  0 1 0  1 1 0  1 0 0  1 0.9499999999997918 0  1 0.8999999999995836 0  1 0.8499999999996529 0  1 0.7999999999999998 0  1 0.7500000000003466 0  1 0.7000000000006934 0  1 0.6500000000010401 0  1 0.6000000000013869 0  1 0.5500000000017335 0  1 0.5000000000020587 0  1 0.4500000000018723 0  1 0.4000000000016644 0  1 0.3500000000014564 0  1 0.3000000000012483 0  1 0.2500000000010403 0  1 0.2000000000008322 0  1 0.1500000000006241 0  1 0.100000000000416 0  1 0.05000000000020799 0  0.9499999999997918 0 0  0.8999999999995836 0 0  0.8499999999996529 0 0  0.7999999999999998 0 0  0.7500000000003466 0 0  0.7000000000006934 0 0  0.6500000000010401 0 0  0.6000000000013869 0 0  0.5500000000017335 0 0  0.5000000000020587 0 0  0.4500000000018723 0 0  0.4000000000016644 0 0  0.3500000000014564 0 0  0.3000000000012483 0 0  0.2500000000010403 0 0  0.2000000000008322 0 0  0.1500000000006241 0 0  0.100000000000416 0 0  0.05000000000020799 0 0  0 0.04999999999989965 0  0 0.09999999999981467 0  0 0.1499999999997036 0  0 0.1999999999995579 0  0 0.2499999999994121 0  0 0.2999999999992664 0  0 0.3499999999991206 0  0 0.3999999999989749 0  0 0.4499999999988292 0  0 0.4999999999986943 0  0 0.5499999999988151 0  0 0.5999999999989468 0  0 0.6499999999990784 0  0 0.69999999999921 0  0 0.7499999999993417 0  0 0.7999999999994734 0  0 0.8499999999996051 0  0 0.8999999999997368 0  0 0.9499999999998684 0  0.04906101305702289 0.9993806446053735 0  0.09811188883148581 0.9982357281795601 0  0.1471001154266491 0.9955564523093228 0  0.1958503409384353 0.9900989151177796 0  0.2439644631964138 0.9805794277778499 0  0.2909381451450369 0.9664691725527986 0  0.3366552899050977 0.9486758774858468 0  0.3818063059903915 0.9294727536633086 0  0.4277307751381588 0.9122460457332434 0  0.4755270790822063 0.9014856197818122 0  0.5244729209152333 0.9014856197815024 0  0.5722692248596354 0.9122460457325435 0  0.6181936940077263 0.9294727536625258 0  0.6633447100932771 0.9486758774851638 0  0.7090618548535697 0.9664691725523106 0  0.7560355368023949 0.980579427777554 0  0.8041496590606322 0.9900989151176391 0  0.8528998845726835 0.9955564523092709 0  0.9018881111680803 0.9982357281795444 0  0.9509389869427761 0.9993806446053706 0  0.497988536479463 0.4584073019730411 0  0.7099702738566043 0.6550648209447739 0  0.2881797556556538 0.6580474012173165 0  0.7271624639501286 0.2765323143321037 0  0.2791296352969418 0.279129635296804 0  0.5029765116608067 0.2244833490023443 0  0.4989600659691972 0.6939836431462296 0  0.2033252247462962 0.4687222542556028 0  0.7966747752548088 0.4687222542555489 0  0.8140040065340377 0.796790508767268 0  0.1859959934654943 0.7967905087677316 0  0.8367131915836784 0.163286808416297 0  0.1632868084146624 0.163286808414744 0  0.6453609995647073 0.5099358210941198 0  0.3566876462107419 0.5115313391776422 0  0.366330491914494 0.1537327490360761 0  0.6350089430390223 0.1564083186971524 0  0.6256077035293737 0.7747355941702203 0  0.3804539967478772 0.7740615012125441 0  0.8537034621138777 0.6114253852868063 0  0.1462965378853473 0.6114253852860367 0  0.8540154476451401 0.3357145121540915 0  0.1485779226443829 0.3403146996612902 0  0.4098067118202697 0.328790275695638 0  0.5860867344114348 0.3383171270930655 0  0.5348725403002087 0.5700372518037082 0  0.2984303371841633 0.397350835064477 0  0.6987020490645841 0.399490149149041 0  0.4049759288508972 0.6181863643055633 0  0.4804162381344986 0.1068520595671234 0  0.8867215939725013 0.7162935324479411 0  0.1132784060276948 0.7162935324475421 0  0.7118827089538876 0.8595108824963797 0  0.2881172910444539 0.8595108824978546 0  0.2614222467229357 0.1077951146587267 0  0.8802222847476107 0.8913981749734063 0  0.1197777152519857 0.8913981749737112 0  0.7395128005310714 0.1075815342612989 0  0.5031143288195671 0.7970861489768863 0  0.6002407586762892 0.6559391312266573 0  0.1062056399126682 0.5071680179605693 0  0.8943840700336749 0.5077849506273201 0  0.2646965839429202 0.5581556705167923 0  0.7324329802645093 0.5557216570089869 0  0.09788306269982677 0.2468340596333699 0  0.9021169373003173 0.2468340596340061 0  0.73984100039498 0.7515785488176419 0  0.2601369192807154 0.7515814848938437 0  0.5978405094655422 0.2418827023833308 0  0.4062634504318672 0.2409518474851967 0  0.4481782333970171 0.5320175370895638 0  0.9129514285743811 0.08761990709072688 0  0.08704857142492065 0.08761990709014901 0  0.9070999625353762 0.4152465125947262 0  0.09263311505006823 0.4160388542716925 0  0.4243790624188805 0.4324353407115809 0  0.5859050047282279 0.4310311283856017 0  0.7899116340094616 0.8943409225672332 0  0.2100883659895949 0.894340922567875 0  0.5648486723820472 0.08786773098024007 0  0.2005651281433269 0.6832313195276902 0  0.7994348718572912 0.6832313195279438 0  0.5076141610746335 0.368813734660207 0  0.8092950655222786 0.2541680407123311 0  0.193970587180641 0.2597257293119042 0  0.9117887731334324 0.8001477908903271 0  0.08821122686662908 0.8001477908901284 0  0.2179661638017719 0.3828150261051088 0  0.7694221999188583 0.3508870747633004 0  0.7122173898126091 0.1929626809285103 0  0.2900514911599287 0.1932962160677438 0  0.4170666742287715 0.7110508555396209 0  0.8142549895534523 0.08116545095633895 0  0.1862152374457486 0.08139832558633708 0  0.655210088419087 0.5921171689211702 0  0.5688761755219747 0.8264065308890882 0  0.4249008145049082 0.8299196198098939 0  0.4015927023115053 0.08039962182133037 0  0.2826834228534819 0.4757398418386529 0  0.7173568580752416 0.4758877314737053 0  0.6614754433566568 0.07849641619564079 0  0.5493000527839668 0.1676759579069589 0  0.9228364146808379 0.6472468599235626 0  0.07716358531920456 0.64724685992316 0  0.3328961630693867 0.5867533784213059 0  0.07496900992773541 0.1705549874941506 0  0.9250309900726172 0.170554987494159 0  0.5549543261312793 0.7418652591316373 0  0.3321525881442995 0.3273036384294685 0  0.6673202732732456 0.3280586208004416 0  0.8216689886839422 0.5449120881314328 0  0.1781061037803688 0.5463707183778782 0  0.652220797975875 0.7099201630968428 0  0.3437345163418128 0.7120283053639888 0  0.5529336723981784 0.5012571215062485 0  0.3272574263785611 0.06785029339498994 0  0.4768728713648041 0.6174498230716563 0  0.07436560294268681 0.3260001398203531 0  0.9256343970573113 0.3260001398214121 0  0.4692493108420644 0.2919927799183104 0  0.6393421909641838 0.8619869241459557 0  0.3606578090336758 0.8619869241473265 0  0.8335441464910135 0.405405100845474 0  0.7787324660339162 0.6149341059466247 0  0.2160572705802657 0.6077513337413187 0  0.4453464365204389 0.1794677106321587 0  0.06881687374885942 0.5730216308552222 0  0.9311831262511342 0.5730216308560944 0  0.5386998263299999 0.2946543462823444 0  0.2192312121499382 0.313678569640613 0  0.3386732260852931 0.2326635766659141 0  0.4424744199148112 0.7529302594542157 0  0.6684263797345497 0.2334751222993877 0  0.1590226995577914 0.4173565935897081 0  0.2256950786900906 0.1927915365771866 0  0.9385539332878714 0.9354724224497755 0  0.06144606671197306 0.9354724224499156 0  0.7320286259182206 0.8965142663753359 0  0.2679713740803262 0.8965142663762948 0  0.6045133442934661 0.5638060084001053 0  0.7754558370861658 0.1930401988552442 0  0.7590840627563639 0.4174154252495469 0  0.1769523279484783 0.7517819152131314 0  0.8230476720512457 0.7517819152128051 0  0.5506958645823316 0.6422586393055837 0  0.3443158638836945 0.4445663186397086 0  0.6507230893322014 0.4592858287886739 0  0.6801485815011414 0.7877357937013862 0  0.3198574231714782 0.7877523704436945 0  0.6344430892085821 0.3856847365344637 0  0.3651081376945156 0.3854919294225705 0  0.2875359085589819 0.3498970377543069 0  0.8478175308582072 0.9337286717473385 0  0.1521824691411336 0.9337286717476594 0  0.5115636995105701 0.06332858610312717 0  0.06484520468448922 0.4677887656173726 0  0.9378077210240451 0.4678957430381395 0  0.3926471750747955 0.5580905768432731 0  0.8481743810086595 0.4570496657684 0  0.361018506447767 0.6447601242352301 0  0.9345100219811358 0.7459899688935695 0  0.06548997801900489 0.7459899688932343 0  0.7651275740464526 0.8044504553813514 0  0.2348697973426467 0.8044508049153875 0  0.4620629034947289 0.3962846766097844 0  0.9328105476274026 0.8557552033655749 0  0.06718945237252982 0.8557552033655705 0  0.5421886996222711 0.4043005125491553 0  0.2339417689386304 0.05813970222260075 0  0.7667462779163609 0.05752737585803633 0  0.1441107676374367 0.6661800122599366 0  0.8558892323632254 0.666180012260469 0  0.8401853405951945 0.8583683030252577 0  0.1598146594043228 0.8583683030257707 0  0.4463333808152168 0.4777532615733638 0  0.618496796971313 0.05053834512807287 0  0.4989976172023128 0.5075905218352273 0  0.4958926578203653 0.1600277630077706 0  0.3722696394181107 0.3045073178639025 0  0.8054763565371981 0.3070513922779309 0  0.6003146286429416 0.7120967017989196 0  0.4539235535202961 0.05776791785246826 0  0.2565373574585441 0.425517726675004 0  0.6227549034277216 0.2927333031411963 0  0.3100392747605669 0.1431472680729582 0  0.2062843415493626 0.1273850995114242 0  0.1571824596326774 0.4664557693883705 0  0.6918302725586892 0.1417380857206577 0  0.9495052985641519 0.2793639828653455 0  0.05049470143603183 0.279363982864111 0  0.04879461066683867 0.3723947432887745 0  0.9511672575594448 0.3722815516221104 0  0.7944401987080585 0.1271487945395706 0  0.1392348903829002 0.2837758107026646 0  0.8590981172742423 0.2822963125534219 0  0.9441210209760875 0.05587897902391242 0  0.05587897902335143 0.05587897902338768 0  0.4984985816789013 0.8503962183825986 0  0.7455433041831918 0.6950283224669082 0  0.2544566958162103 0.6950283224702735 0  0.6791642295795414 0.8962200891763429 0  0.3208357704186351 0.8962200891774521 0  0.8696371112807181 0.05210443380690444 0  0.1303628887180615 0.05210443380605537 0  0.858280319352661
[...]
<PointData  Scalars="f_46-1"> 
<DataArray  type="Float64"  Name="f_46-1"  format="ascii">-1.1976551579502193e-02  -3.3920845400270611e-01  5.4749296178873479e+00  -1.3248698062248183e+01  5.4229107535179999e+00  5.7009967884072728e+00  5.8915833842716623e+00  6.0307859829088901e+00  6.1279827417282071e+00  6.2099089292313483e+00  6.3072552335559040e+00  6.0688749196585530e+00  6.0429648999314036e+00  5.5701956373216559e+00  5.1791470021775847e+00  4.6970312020048404e+00  3.7194299650867806e+00  3.0180213496601405e+00  1.8126503149061037e+00  2.4876392355505039e-01  -1.2721441123614612e+00  -3.0745725585324517e+00  -5.8715287026994796e+00  -3.2418907970082418e+00  -3.1866163315542408e+00  -1.5726112210139325e+00  -1.6088347821604521e+00  -1.0608523327480630e+00  -7.7337593832128215e-01  -7.4452583730161881e-01  -3.7448369198962644e-01  -3.4955309065365325e-01  -2.1324466531941516e-01  -1.5171472880897058e-01  -1.5180033570745305e-01  -1.3738679542546834e-02  -2.4581696226406834e-02  2.1412535354659926e-02  4.6092923898166258e-02  1.9372354698728195e-02  3.8858918635872715e-02  3.2207669466460284e-03  -4.1423160526134567e-02  -3.2179874625308538e-02  -1.4600138742030636e-01  -1.2358042334564620e-01  -1.9601911477106093e-01  -2.3553547119181190e-01  -2.3034411805953539e-01  -3.4292056063178983e-01  -3.0774081630387790e-01  -3.3694650102135620e-01  -3.7119871430059048e-01  -3.2925361718134782e-01  -3.4327723168084184e-01  -3.1652580925135448e-01  -2.8153789573983473e-01  -2.3773702149825535e-01  -2.3742303843415985e-01  -2.6194576100323208e-01  -1.0251888917652327e-01  -4.7384193917210804e-01  -5.1341953789327233e-01  -7.3378935614644569e-01  -8.6205722247663141e-01  -1.0780826576784281e+00  -1.4564900055806245e+00  -1.8668241172526892e+00  -2.9509383495862873e+00  -2.5788671131433669e+00  -1.6348310355119107e+00  1.4653791382183750e+00  3.9142764561752337e+00  5.3572364793543921e+00  5.1887436501524995e+00  5.1091997030649381e+00  4.8878078480144769e+00  4.6460358555187531e+00  4.7872522812266496e+00  4.8349502105394269e+00  5.2353346398335088e+00  1.0982430526180162e+00  3.1769486452506182e+00  1.6258871976725436e-01  1.0568798206904035e+00  2.0287040764618797e-01  3.8382949904580238e-01  1.3272782237690373e+00  7.1578076515278199e-02  3.0271783991721026e+00  4.4907116763143913e+00  -3.5091424124723941e-01  -2.4274683072258837e-01  -4.8722785721063335e-03  2.0771396147976353e+00  5.3579163281835429e-01  1.0553809497995857e-01  1.3695851792382760e-02  2.7816926493296288e+00  5.0315010010746362e-02  4.3972170926760974e+00  -1.3263097110883931e-01  2.1921435384444523e+00  9.3568824926490053e-03  5.0482571623488559e-01  9.7553858700136797e-01  1.4841676716008481e+00  3.5674106513494896e-01  1.8473093544945787e+00  7.6793307274740885e-01  8.5429314728307398e-04  5.0101833746488129e+00  -2.7078918198853258e-01  4.2002589911536088e+00  -7.7897451744854163e-01  6.7359323961090942e-02  5.0149299630719275e+00  -3.8125811631031969e-01  -4.4913356726984721e-01  1.1207643224149939e+00  2.2118040914753880e+00  -1.7976350898648469e-01  4.2912756433189294e+00  1.7917755920439601e-01  2.9961633578054179e+00  -6.9346396847284011e-02  1.1064071426110247e+00  3.7914432467374852e+00  -1.5216191853680852e-01  5.6304924294520697e-01  2.8660740383564215e-01  9.7494371086957066e-01  -2.4691439185932769e+00  -2.1977631218806967e-02  3.5669821661591818e+00  -1.3766074043002416e-01  7.5187258618037067e-01  1.4082190275641668e+00  4.6117317189105256e+00  -6.6717191547473109e-01  -1.1392747110548264e-01  -1.1176154564357514e-01  4.1005321666622594e+00  8.6750111310952593e-01  1.0069834714460868e+00  3.8251418687384686e-02  5.2657496865171654e+00  -2.9108735863441182e-01  1.2852189008312340e-01  1.8191510549692202e+00  3.0818606042877600e-01  1.0278894125256265e-01  6.2377592036249341e-01  -1.1826688786228923e+00  1.0018560221144023e-02  2.5062431356783921e+00  2.4817692158134514e+00  -5.4835529519242743e-01  -2.5725569077790448e-03  3.1656190862494155e-01  2.4170050147857536e+00  -3.8860127150053692e-01  1.9394946211755512e-01  5.3155676772587048e+00  -2.2585227090369508e-01  4.2378981990015813e-01  -6.0586116916481567e-02  -6.4487514189783590e-01  1.9858582650259153e+00  3.6213166540087455e-01  1.2320876887638168e+00  3.6032826960986730e+00  -1.7656574375170403e-02  2.8102512080677005e+00  1.6126868139377801e-01  1.4645674162533178e+00  3.5729964369144704e-02  1.1596870277038833e+00  -1.1459431273266911e-01  2.5939429116978650e+00  5.4484178763283486e-01  3.9789044789661401e+00  -1.3773572356111978e+00  2.7687633720259628e+00  3.5683103203377580e+00  4.8077649851228338e-02  1.8450027433054522e-01  -2.1834781873051459e-01  5.0936757390699618e+00  7.0934286868977436e-01  1.2084674477931880e-01  2.0912078289895888e-01  6.6632246105717741e-01  5.9617218957034135e-01  -1.1771730114492214e-02  5.9303524612174766e-02  5.2682000026899640e+00  -4.4210463838273484e-01  4.5279624454849765e+00  -9.4401559944551849e-01  1.9604504767952549e+00  2.8435303404583023e-01  2.3171883577094712e+00  -2.4264685646719833e-01  4.4897118427767069e+00  1.7301026474396350e+00  4.9334836784024211e-01  1.9028387268045588e+00  3.5232968147594446e+00  -3.6913902267813803e-01  1.4437577401946473e+00  4.9218254822776591e-01  2.4300969292986965e-01  4.8875845745317967e+00  -7.0234114360675626e-01  -4.3118738408890057e-02  -2.2541725517690236e-01  4.5066767828686132e+00  6.7245207837716015e-01  3.3043588611930765e+00  4.9241688708858622e-01  5.4476143158101822e+00  -2.6362342114502935e-01  4.2077797611868233e+00  -4.1597917613705643e-01  8.1126880871133400e-01  5.3040821407146721e+00  -3.4440200102652152e-01  1.1234706942496018e+00  1.4743659669307060e-02  -6.4909674389480854e-01  -1.4726384951541291e-01  4.5100699185122606e+00  4.7963848048033464e+00  -5.3161445746774716e-01  8.6753115063993458e-01  -3.5147438696041367e-01  1.1930258520793415e+00  2.0288910552333300e-01  3.5285541624214245e-01  1.6514570403474764e+00  2.3081299361484184e+00  -1.0212953227354617e-01  2.0319731449295830e-01  9.2934316497433200e-01  1.0305338309843431e-01  3.3590722608260716e-02  -2.5124682892802237e-02  1.3064327440017498e-01  2.0734884538415193e+00  -1.6258700740357065e-01  -2.2387136748276865e-01  3.6028917303101249e+00  -3.1501692398053022e-01  -3.4088062551340066e-02  1.5496432798525801e+00  -1.6775614106534626e+00  5.8123848693111151e-04  9.9847969022945693e-01  3.6048889507236028e+00  7.2925767038775754e-03  4.0843100479410328e+00  -9.0963596825626014e-01  -1.0280747427369694e+00  3.4969655747070207e-02  7.3194319046922518e-01  -1.1139222294711773e-02  2.4918689838923016e+00  2.8895443592237942e+00  2.4757874213907938e+00  1.0370612369072334e-01  5.4833802656045298e+00  -3.0722879959664151e-01  5.0215125132786271e+00  -2.6346022336574171e-01  1.1637177723075687e+00  -8.2152218539586930e-02  -1.0886532307450880e+00  1.6201275660930219e+00  1.7954512978757289e+00  4.1625023731526678e+00  -5.6647565813867908e-02  -6.0926301551295547e-01  4.3007460357932423e+00  -4.9598094391689185e-01  9.8089950400145276e-01  -1.5374219181899554e-01  1.7725836948970790e+00  4.8419121814374240e+00  -3.4674046276640091e-01  7.8773013155522253e-01  3.5524754584769275e-01  9.4151968749642295e-02  2.1594609321009181e-01  2.8551808949184139e+00  2.5113783456456068e-01  1.0229159596570452e+00  9.5598102410473507e-01  -1.3391150280491784e-01  2.8795065137064677e+00  7.5294293392930389e-01  2.0919285216343678e-01  5.4383400548094352e-01  -8.0499846367395689e-01  -1.9529452879288047e-03  4.5223010725859947e-01  4.1449313756661779e+00  -2.1834873297784460e-01  1.6431389726341321e+00  1.0130091988527639e-02  1.7582987547877082e-02  5.5570556365186444e-02  1.2059103052771480e+00  4.3781317895149341e-01  4.6868429640428841e+00  -7.1450423683250819e-01  -3.1074599014598074e-02  8.8080786755799167e-01  1.8048423056964691e+00  5.8518189406057441e-01  1.3047707554791139e+00  1.2369766230413206e+00  4.9280629600513626e+00  -4.4896327170263317e-01  3.6477724715957649e+00  6.5479072188719054e-02  5.0369329375579381e+00  -3.7321083335287170e-01  3.0381157717633139e-02  -2.5943614776199514e-01  4.4421808059166459e+00  6.5498162657154191e-01  5.5483700908691619e-02  2.2684653625340179e+00  3.0858671197102390e+00  -4.4071374734735774e-01  3.2758704904141722e+00  -3.3734929160830357e-01  -2.4331328268468212e-02  1.4443044939438299e+00  -3.1993403196036924e-01  5.5214540969013273e+00  4.4029858296455660e-01  3.9766925081583469e+00  -4.6281898337526717e-02  2.8933872104760878e+00  -4.6745121398377343e-01  4.7543279092757702e+00  -2.0328170252501981e-01  1.3005702913292207e-02  4.9078821779032049e-02  -6.1216317260008257e-02  1.9666528645838817e+00  -9.2438913484704510e-02  9.3751514111700074e-01  5.7206447483994465e+00  -2.3609915188084016e-01  9.2701766129936336e-01  6.6008153604310715e-01  3.1251464835576792e-01  2.4987392952589316e-01  -1.0077275890642683e-01  2.6260614560725915e-02  3.5712223652171251e+00  3.1042411027274395e+00  8.5544708210068307e-02  3.3746199734408799e-01  -1.5041294723007298e-01  5.3950405607322249e+00  1.8668095134204563e-01  1.6104414264120601e-01  3.3831330468138763e+00  9.6120063336651879e-02  -1.3709189750867452e+00  4.3354368648300230e-02  3.5669672117854905e+00  -3.5125390126601724e-01  1.3057799688268423e-01  7.7863245425665739e-01  -3.5507749332739875e-02  -4.2637762504405824e-01  -8.5734152270364582e-03  6.3649069445427875e-01  2.0088113905895327e-01  1.9960753963622860e-01  4.3838226469011127e-01  5.0582422592220677e+00  -2.7522540264437140e-01  -4.8870538754838566e-01  1.9936204696692386e+00  1.0799066927160907e-02  2.2887481504685139e-01  3.4934191474769505e-02  2.5858832061776016e+00  -2.1252772746334722e-01  4.0593570422859244e+00  7.2095774130624268e-01  2.2048736286025865e+00  2.6010646365977173e+00  -4.5158941719337438e-02  2.2291773035885316e+00  2.2357905183502940e+00  3.5208758455581329e-01  5.2849321364067570e-01  3.7842120025262860e+00  4.5412375267184268e+00  -4.8013269541894693e-01  8.2733050227701133e-01  2.2564493419805731e+00  4.3324195061937809e-01  3.2190328118408640e-01  3.7352676411345676e-01  -1.1504943938430696e-01  6.3193560868390147e-02  2.7119119420908286e+00  -1.8627588562710129e-01  4.4563714656983890e+00  5.2343883844432815e-01  1.7076649633776713e+00  3.9510267697921844e+00  -3.7297041061130180e-02  4.9810466367964903e+00  -2.2257102817728625e-01  5.9950750132924935e-01  2.3297114019867502e+00  1.5004413562732983e+00  -8.0823813394450023e-02  -2.4431057092663294e-01  1.7208045539604397e-01  5.6866021053922573e+00  -3.2842095718561276e-01  2.8680649108518885e-01  3.5181508811725815e-01  5.1415870741468722e-02  1.9934317003117350e+00  -3.2600601280440712e-02  4.7492995527147486e-01  -2.1824347888829956e+00  2.2836834358047682e-02  5.4397291379564026e-02  1.2417477658317583e-01  4.5929927495960223e+00  -8.9305971756471758e-01  1.2752082365038140e+00  1.4398901854044979e+00  2.4164734756946228e-02  -2.5608221502938550e-01  3.0925399532106619e+00  5.7853912919637365e+00  -3.2757019061636072e-01  1.3582346709975639e+00  1.4755759304058775e+00  2.7286175118097802e+00  3.2273778321898933e-01  4.5463397122049294e+00  -1.0474842130166377e+00  9.8982779309950708e-01  -3.5017498610939696e-02  3.2230273796823359e+00  6.2360184411547892e-01  2.3229934547570537e+00  3.8632991177063811e+00  -9.2149003885315028e-01  4.7618815122796594e+00  -5.1060360405131011e-01  3.3567256842338380e+00  4.8055162144268735e+00  -3.5948881912448422e-01  5.3076798359779680e+00  -2.2669662695336393e-01  -5.3906388702407132e-02  6.5762455124348285e-01  5.5777061122563589e+00  -3.7086180395015655e-01  3.4285647176019141e-01  3.8609740210073360e+00  -5.0955204088379402e-01  9.0913146817143964e-01  1.6566587863081561e-01  -2.8903453446869842e-01  5.8937811812916552e+00  1.8090506600381187e+00  5.8997114273988627e-02  3.3287017797705842e+00  1.2586461563897440e+00  1.4580014483257508e+00  1.1803227482959104e+00  -4.2760821623945533e-01  4.5817354469862765e+00  -1.8769865639262429e-01  2.6106909183110436e+00  3.7351562526571569e-02  2.8355046324628463e+00  2.3734368052623941e-01  3.2401938895195764e-01  -2.1151242437396431e-01  4.7900399681737849e+00  -2.1038086553201080e-01  3.0128628999784668e-01  5.1644980764147461e-02  -8.3424892394267022e-02  -2.4767479881082699e+00  -9.6111657320843244e-02  2.3098477443979144e+00  5.8912015813931895e-01  2.8444944243975528e-01  5.1773917476678735e+00  -3.2145561552608976e-01  -1.7935966202222851e-02  3.3914264657030273e+00  1.1982173331871596e-01  8.9777482093758987e-01  7.1489257327556055e-01  1.4138189501956115e+00  1.2497201642992657e+00  1.5847342027346143e+00  -2.6605245908360314e-01  3.0791918671926530e+00  -2.4570652676810972e-01  5.3839556440964864e-01  -5.4211752847301904e-02  -4.9276608456147136e-01  4.7166701807801941e+00  1.8178986858703128e-01  1.0692159985125000e+00  3.6313501164933676e-01  1.7466950753525530e+00  2.3266225160138698e-01  -9.6931829193837263e-02  2.7572362307993092e+00  1.5306078008396555e+00  4.5099021637171011e-01  4.7774168337392973e-02  -2.4230658638297004e-01  4.7552252240896768e+00  4.0986813755248142e-01  -5.6800085946489496e+00  1.2286422596555501e-02  1.1199270566827625e-01  2.9331627766870993e+00  1.3544125758338066e-01  -1.8284758519390168e-01  5.3582097147379510e+00  1.5958882630819868e-01  5.1906434125687018e-01  2.0391382836469458e+00  5.2398608605496451e+00  -3.7611601332655031e-01  4.9161535114350849e+00  -3.4865023867187844e-01  </DataArray> 
</PointData> 
</Piece>
</UnstructuredGrid>
</VTKFile>