<?xml version="1.0"?>
<VTKFile type="UnstructuredGrid"  version="0.1"  >
<UnstructuredGrid>
<Piece  NumberOfPoints="3306" NumberOfCells="6408">
<Points>
<DataArray  type="Float64"  NumberOfComponents="3"  format="ascii">0 0 0  0 1 0  1 1 0  1 0 0  1 0.9799999999999167 0  1 0.9599999999998334 0  1 0.9399999999997501 0  1 0.9199999999996669 0  1 0.8999999999995835 0  1 0.879999999999508 0  1 0.8599999999995834 0  1 0.8399999999997222 0  1 0.819999999999861 0  1 0.7999999999999997 0  1 0.7800000000001385 0  1 0.7600000000002772 0  1 0.7400000000004161 0  1 0.7200000000005549 0  1 0.7000000000006936 0  1 0.6800000000008324 0  1 0.660000000000971 0  1 0.6400000000011098 0  1 0.6200000000012484 0  1 0.6000000000013872 0  1 0.5800000000015259 0  1 0.5600000000016645 0  1 0.5400000000018033 0  1 0.5200000000019419 0  1 0.500000000002059 0  1 0.4800000000019974 0  1 0.4600000000019141 0  1 0.4400000000018309 0  1 0.4200000000017478 0  1 0.4000000000016645 0  1 0.3800000000015813 0  1 0.360000000001498 0  1 0.3400000000014148 0  1 0.3200000000013316 0  1 0.3000000000012484 0  1 0.2800000000011651 0  1 0.2600000000010819 0  1 0.2400000000009987 0  1 0.2200000000009155 0  1 0.2000000000008322 0  1 0.180000000000749 0  1 0.1600000000006658 0  1 0.1400000000005825 0  1 0.1200000000004994 0  1 0.1000000000004161 0  1 0.08000000000033292 0  1 0.06000000000024963 0  1 0.04000000000016646 0  1 0.02000000000008328 0  0.9799999999999167 0 0  0.9599999999998334 0 0  0.9399999999997501 0 0  0.9199999999996669 0 0  0.8999999999995835 0 0  0.879999999999508 0 0  0.8599999999995834 0 0  0.8399999999997222 0 0  0.819999999999861 0 0  0.7999999999999997 0 0  0.7800000000001385 0 0  0.7600000000002772 0 0  0.7400000000004161 0 0  0.7200000000005549 0 0  0.7000000000006936 0 0  0.6800000000008324 0 0  0.660000000000971 0 0  0.6400000000011098 0 0  0.6200000000012484 0 0  0.6000000000013872 0 0  0.5800000000015259 0 0  0.5600000000016645 0 0  0.5400000000018033 0 0  0.5200000000019419 0 0  0.500000000002059 0 0  0.4800000000019974 0 0  0.4600000000019141 0 0  0.4400000000018309 0 0  0.4200000000017478 0 0  0.4000000000016645 0 0  0.3800000000015813 0 0  0.360000000001498 0 0  0.3400000000014148 0 0  0.3200000000013316 0 0  0.3000000000012484 0 0  0.2800000000011651 0 0  0.2600000000010819 0 0  0.2400000000009987 0 0  0.2200000000009155 0 0  0.2000000000008322 0 0  0.180000000000749 0 0  0.1600000000006658 0 0  0.1400000000005825 0 0  0.1200000000004994 0 0  0.1000000000004161 0 0  0.08000000000033292 0 0  0.06000000000024963 0 0  0.04000000000016646 0 0  0.02000000000008328 0 0  0 0.01999999999996237 0  0 0.03999999999992186 0  0 0.05999999999987837 0  0 0.07999999999984518 0  0 0.09999999999981463 0  0 0.1199999999997832 0  0 0.1399999999997328 0  0 0.1599999999996745 0  0 0.1799999999996162 0  0 0.1999999999995579 0  0 0.2199999999994996 0  0 0.2399999999994413 0  0 0.259999999999383 0  0 0.2799999999993247 0  0 0.2999999999992664 0  0 0.3199999999992081 0  0 0.3399999999991498 0  0 0.3599999999990915 0  0 0.3799999999990332 0  0 0.3999999999989749 0  0 0.4199999999989167 0  0 0.4399999999988584 0  0 0.4599999999988 0  0 0.4799999999987418 0  0 0.4999999999986943 0  0 0.5199999999987361 0  0 0.5399999999987888 0  0 0.5599999999988415 0  0 0.5799999999988942 0  0 0.5999999999989468 0  0 0.6199999999989995 0  0 0.6399999999990521 0  0 0.6599999999991049 0  0 0.6799999999991574 0  0 0.6999999999992101 0  0 0.7199999999992628 0  0 0.7399999999993154 0  0 0.7599999999993681 0  0 0.7799999999994207 0  0 0.7999999999994734 0  0 0.8199999999995261 0  0 0.8399999999995788 0  0 0.8599999999996314 0  0 0.8799999999996841 0  0 0.8999999999997367 0  0 0.9199999999997894 0  0 0.939999999999842 0  0 0.9599999999998947 0  0 0.9799999999999475 0  0.01981223838989405 0.9996834584119909 0  0.03962615666744373 0.9994998936917873 0  0.05943891534848836 0.9992185656120786 0  0.07924928152316037 0.9988028566181016 0  0.09905484365392103 0.9982018835030869 0  0.1188512146156335 0.9973521922303733 0  0.1386308591816297 0.9961778196798236 0  0.1583816151098973 0.9945921134872248 0  0.1780851609955714 0.9925019689714799 0  0.1977159739852161 0.9898149246371555 0  0.2172416125585638 0.9864489722185406 0  0.2366251889974071 0.982343974991522 0  0.2558304459446465 0.9774725521376445 0  0.2748288611191446 0.9718478394873321 0  0.2936071736804797 0.9655262735549613 0  0.3121733164523373 0.9586053737947818 0  0.3305593621395178 0.9512184324483133 0  0.3488212177103935 0.9435289972671942 0  0.3670356228182853 0.9357276813138369 0  0.3852949597035558 0.928032549935203 0  0.4036994863844749 0.9206926480258953 0  0.4223455301764625 0.9139924148970149 0  0.4413070215920814 0.9082498041293229 0  0.4606117146344925 0.9038030462857873 0  0.4802168683185395 0.9009732342847627 0  0.4999999999986804 0.9 0  0.5197831316789342 0.900973234284517 0  0.5393882853631176 0.9038030462853373 0  0.5586929784056701 0.9082498041287212 0  0.5776544698214354 0.9139924148963176 0  0.5963005136135567 0.9206926480251492 0  0.6147050402946012 0.9280325499344465 0  0.6329643771799911 0.9357276813131029 0  0.6511787822879757 0.943528997266499 0  0.6694406378589428 0.9512184324476771 0  0.6878266835462217 0.9586053737942212 0  0.7063928263181706 0.9655262735544805 0  0.7251711388795853 0.9718478394869294 0  0.7441695540541527 0.9774725521373141 0  0.7633748110014851 0.9823439749912644 0  0.7827583874404325 0.9864489722183485 0  0.802284026013886 0.9898149246370173 0  0.8219148390036239 0.9925019689713828 0  0.8416183848894001 0.9945921134871599 0  0.8613691408177888 0.9961778196797834 0  0.8811487853838921 0.9973521922303493 0  0.9009451563456716 0.9982018835030723 0  0.9207507184765045 0.9988028566180931 0  0.9405610846512642 0.9992185656120743 0  0.9603738433323943 0.9994998936917858 0  0.980187761610022 0.9996834584119899 0  0.5295317870826405 0.4538798845638543 0  0.3010043052302696 0.643095562790624 0  0.293884973087889 0.291360457687536 0  0.7171728557250131 0.6643836233421676 0  0.7309217698776121 0.2690782301223353 0  0.5081496670814994 0.2258333952850507 0  0.5056693219274829 0.6872400437459651 0  0.7921894734936374 0.4666615361060825 0  0.1996204512358815 0.4705212091487672 0  0.1910076310472202 0.796836670064712 0  0.8194374698946407 0.8146555454540642 0  0.1686201591185468 0.1710620479824852 0  0.366988693633551 0.4847320383489041 0  0.8444635887074646 0.1551964118972024 0  0.3664779587977059 0.1571557788967345 0  0.3784134561861172 0.7690529526031215 0  0.1517278108022765 0.6118794191866471 0  0.6375080888395876 0.1507424069065769 0  0.8521419352910322 0.6038821680743038 0  0.6550097960999424 0.5294796437057158 0  0.1468346818068445 0.3293106442754394 0  0.4253514664135472 0.3487823143758817 0  0.6251125425812472 0.7758586947902391 0  0.8549952177171118 0.3418900524109663 0  0.6037355870881795 0.3268210670787347 0  0.4750918129170438 0.5643863156580115 0  0.6851651499057985 0.416598035323688 0  0.8860526136200468 0.7149846891160454 0  0.1149570525590216 0.8835577836734787 0  0.4758821478872896 0.1150418386980885 0  0.608158244007739 0.6327403545446086 0  0.7119976325954919 0.8489666794950812 0  0.2934591351489471 0.8421057809262593 0  0.1123577419886182 0.7165213011654349 0  0.2907893047268993 0.4024525184824068 0  0.2652483052277392 0.1116403836783503 0  0.7446955697905693 0.1131261033918643 0  0.4846996783643319 0.7939987357899085 0  0.8932223594041186 0.8897133249531013 0  0.8926188349390607 0.5053265939269527 0  0.4061672654874761 0.6500709747814559 0  0.1064086664762977 0.5149655104119606 0  0.2782557836778535 0.5367575065101468 0  0.7512071978006727 0.5694055774521294 0  0.2817783582164691 0.74202350620063 0  0.8956560451566704 0.2453560098855361 0  0.4069026573977154 0.2467644647648861 0  0.09976345832343503 0.2420845423718544 0  0.09910813300333063 0.415917868477031 0  0.1005563152292118 0.09783815589805252 0  0.2140742788554926 0.891931831688632 0  0.5627343424225817 0.5413035315289056 0  0.7432612059895732 0.7558361860902576 0  0.7634433124599511 0.3599712599733764 0  0.5970782818879727 0.2344469013023842 0  0.2020587067781189 0.6917230239079056 0  0.2548161234433781 0.2056015384814969 0  0.5656396584762606 0.09239781739862535 0  0.9059630038221314 0.09109034307604527 0  0.5198873358713318 0.3558476135136062 0  0.9089487710564095 0.4146922094927505 0  0.7879782409003246 0.8953131121912357 0  0.443452764185103 0.4363129184819638 0  0.910167917521746 0.8023507480926234 0  0.3626659654530978 0.5738051545449639 0  0.8043475241612779 0.6780584265752259 0  0.08884806594599022 0.8006317621905593 0  0.8153681461508664 0.2363583356218688 0  0.1848628112700835 0.08591386978186605 0  0.1873129503013186 0.2537639178768637 0  0.6153776371777409 0.4575410324032068 0  0.2116795553162772 0.3871924862232438 0  0.7120062838305536 0.1886196947546994 0  0.5579517761735906 0.8230290764972148 0  0.4009548442093757 0.0804292548510913 0  0.8153079582371993 0.08055513508925556 0  0.6820386545474504 0.3342584284179749 0  0.3743757596984149 0.850331499446609 0  0.3701110276524883 0.405756990446554 0  0.2298922745734373 0.6018477789404362 0  0.9190995951515615 0.6442440118326231 0  0.07906685267752618 0.6441711636138505 0  0.9167800765677996 0.1679823442287522 0  0.5802137559159579 0.7130291757424378 0  0.6685563366083545 0.07689840675855286 0  0.5284127874970642 0.616201857059823 0  0.6340398286875102 0.8531690959844174 0  0.3330873690758943 0.2248986077082147 0  0.5596556152734511 0.169476220814334 0  0.43774817379654 0.7208226912384406 0  0.3486395154544785 0.7035445480789027 0  0.1809484676834864 0.5410781768403725 0  0.7157903272469412 0.4822783011218844 0  0.3534203624968851 0.3324835913729062 0  0.4793104353365547 0.2962387068706336 0  0.6740093416766569 0.6028090887824048 0  0.4418305203821944 0.18501815045547 0  0.07396158713362264 0.1692692646246999 0  0.6546896966136642 0.712692597447521 0  0.07428905548152345 0.3110900960632803 0  0.9257207656384696 0.3141435794254369 0  0.8247389397781502 0.5
[...]
<PointData  Scalars="f_19"> 
<DataArray  type="Float64"  Name="f_19"  format="ascii">-5.1694746303719415e-05  -5.1694746303719415e-05  -5.1694746303719415e-05  -5.1694746303719415e-05  -4.6943106358151128e-05  -5.1694746303719415e-05  -4.6943106358151128e-05  -4.8526986340007224e-05  -4.8526986340007224e-05  -4.8526986340007224e-05  -4.8526986340007224e-05  -4.6943106358151128e-05  -4.8526986340007224e-05  -4.8526986340007224e-05  -4.6943106358151128e-05  -4.8526986340007224e-05  -4.6943106358151128e-05  -4.8526986340007224e-05  -4.8526986340007224e-05  -4.8526986340007224e-05  -4.8526986340007224e-05  -4.8526986340007224e-05  -4.8526986340007224e-05  -4.8526986340007224e-05  -4.8526986340007224e-05  -4.8526986340007224e-05  -4.8526986340007224e-05  -4.8526986340007224e-05  -4.8526986340007224e-05  -4.8526986340007224e-05  -4.8526986340007224e-05  -4.8526986340007224e-05  -4.8526986340007224e-05  -4.8526986340007224e-05  -4.8526986340007224e-05  -4.8526986340007224e-05  -4.6943106358151128e-05  -4.6943106358151128e-05  -4.8526986340007224e-05  -4.8526986340007224e-05  -4.8526986340007224e-05  -4.8526986340007224e-05  -4.8526986340007224e-05  -4.8526986340007224e-05  -4.8526986340007224e-05  -4.8526986340007224e-05  -4.8526986340007224e-05  -4.8526986340007224e-05  -4.8526986340007224e-05  -4.8526986340007224e-05  -4.6943106358151128e-05  -4.8526986340007224e-05  -4.8526986340007224e-05  -4.8526986340007224e-05  -4.8526986340007224e-05  -4.8526986340007224e-05  -4.8526986340007224e-05  -4.8526986340007224e-05  -4.8526986340007224e-05  -4.8526986340007224e-05  -4.8526986340007224e-05  -4.6943106358151128e-05  -4.8526986340007224e-05  -4.8526986340007224e-05  -4.6943106358151128e-05  -4.8526986340007224e-05  -4.8526986340007224e-05  -4.8526986340007224e-05  -4.8526986340007224e-05  -4.6943106358151128e-05  -4.8526986340007224e-05  -4.8526986340007224e-05  -4.8526986340007224e-05  -4.8526986340007224e-05  -4.8526986340007224e-05  -4.6943106358151128e-05  -4.8526986340007224e-05  -4.8526986340007224e-05  -4.8526986340007224e-05  -4.8526986340007224e-05  -4.8526986340007224e-05  -4.8526986340007224e-05  -4.8526986340007224e-05  -4.8526986340007224e-05  -4.8526986340007224e-05  -4.8526986340007224e-05  -4.8526986340007224e-05  -4.8526986340007224e-05  -4.6943106358151128e-05  -4.8526986340007224e-05  -4.8526986340007224e-05  -4.8526986340007224e-05  -4.8526986340007224e-05  -4.8526986340007224e-05  -4.8526986340007224e-05  -4.8526986340007224e-05  -4.8526986340007224e-05  -4.8526986340007224e-05  -4.8526986340007224e-05  -4.8526986340007224e-05  -4.8526986340007224e-05  -4.8526986340007224e-05  -4.8526986340007224e-05  -4.6943106358151128e-05  -4.8526986340007224e-05  -4.8526986340007224e-05  -4.6943106358151128e-05  -5.1694746303719415e-05  -4.6943106358151128e-05  -4.8526986340007224e-05  -4.8526986340007224e-05  -4.8526986340007224e-05  -4.8526986340007224e-05  -4.8526986340007224e-05  -4.8526986340007224e-05  -4.8526986340007224e-05  -4.8526986340007224e-05  -4.6943106358151128e-05  -4.6943106358151128e-05  -4.8526986340007224e-05  -4.8526986340007224e-05  -4.8526986340007224e-05  -4.8526986340007224e-05  -4.8526986340007224e-05  -4.8526986340007224e-05  -4.8526986340007224e-05  -4.8526986340007224e-05  -4.8526986340007224e-05  -4.8526986340007224e-05  -4.8526986340007224e-05  -4.8526986340007224e-05  -4.8526986340007224e-05  -4.8526986340007224e-05  -4.8526986340007224e-05  -4.8526986340007224e-05  -4.8526986340007224e-05  -4.6943106358151128e-05  -4.8526986340007224e-05  -4.8526986340007224e-05  -4.8526986340007224e-05  -4.8526986340007224e-05  -4.8526986340007224e-05  -4.6943106358151128e-05  -4.8526986340007224e-05  -4.8526986340007224e-05  -4.8526986340007224e-05  -4.8526986340007224e-05  -4.8526986340007224e-05  -4.6943106358151128e-05  -5.1694746303719415e-05  -4.6943106358151128e-05  -4.8526986340007224e-05  -4.8526986340007224e-05  -4.6943106358151128e-05  -4.8526986340007224e-05  -4.8526986340007224e-05  -4.8526986340007224e-05  -4.8526986340007224e-05  -4.6943106358151128e-05  -4.8526986340007224e-05  -4.8526986340007224e-05  -4.8526986340007224e-05  -4.8526986340007224e-05  -4.6943106358151128e-05  -4.8526986340007224e-05  -4.8526986340007224e-05  -4.8526986340007224e-05  -4.8526986340007224e-05  -4.8526986340007224e-05  -4.8526986340007224e-05  -4.8526986340007224e-05  -4.6943106358151128e-05  -4.8526986340007224e-05  -4.8526986340007224e-05  -4.6943106358151128e-05  -5.1694746303719415e-05  -4.6943106358151128e-05  -4.8526986340007224e-05  -4.8526986340007224e-05  -4.8526986340007224e-05  -4.6943106358151128e-05  -4.8526986340007224e-05  -4.8526986340007224e-05  -4.8526986340007224e-05  -4.8526986340007224e-05  -4.8526986340007224e-05  -4.8526986340007224e-05  -4.8526986340007224e-05  -4.8526986340007224e-05  -4.8526986340007224e-05  -4.6943106358151128e-05  -4.8526986340007224e-05  -4.8526986340007224e-05  -4.8526986340007224e-05  -4.8526986340007224e-05  -4.8526986340007224e-05  -4.8526986340007224e-05  -4.8526986340007224e-05  -4.8526986340007224e-05  -4.6943106358151128e-05  -4.8526986340007224e-05  -4.8526986340007224e-05  6.3906055210650866e-03  6.1984113837147605e-04  -6.4539378579599063e-04  -1.7235275268532784e-05  -1.0698854422487533e-03  -1.2937872861217508e-04  2.4225989821942137e-03  -3.7379293941562918e-04  -4.8538081449390417e-04  -1.3180182276998217e-03  -1.3886780081729586e-03  -1.6244559578151385e-03  3.9972253400238590e-03  -1.5460613597747858e-03  -1.2092625246448909e-03  -2.9064211607920190e-05  -1.0187716944262334e-03  -1.2323496691483903e-03  -1.0805266277852971e-03  3.1063113371125137e-03  -1.3509674780401043e-03  2.6187838122853561e-03  -2.5764220910995286e-04  -1.2679041699285791e-03  1.6025233598447514e-03  6.1752183680979624e-03  1.6232564407619031e-03  -1.2794185917235209e-03  -1.0086132731458822e-03  -1.0313071699775901e-03  2.8117820664007374e-03  -1.0429584598889029e-03  -9.3861228840142797e-04  -1.1632898862520297e-03  7.7222781488837770e-04  -1.3648185746525730e-03  -1.4159253919450807e-03  1.6070084253486566e-04  -9.4383988875634069e-04  -1.0015982965966971e-03  2.7231235502528559e-03  -9.4004649554788467e-04  1.0763717223136243e-03  1.7688350242798316e-04  -6.8430337338483069e-04  -1.3631987369033185e-03  -1.2959024909385035e-04  -1.3048445644974597e-03  -1.0250961617682616e-03  -9.9858223867082293e-04  -1.0309323554086379e-03  5.9605923274235230e-03  -1.0920839976731531e-03  -5.4270299519156831e-04  -3.1979378221315858e-04  -1.0073716218013051e-03  -1.5546991243090553e-03  -9.7805197825396152e-04  -9.4161467713525608e-04  3.4824214878182839e-03  -1.0157244150805641e-03  -1.0371358761487059e-03  5.5614391569444033e-03  -1.1363406877156973e-03  3.3368221676823803e-03  -1.0895591541174822e-03  -1.0878327485491608e-03  -1.6102563391313766e-03  -1.2044997165447163e-03  -1.5834903519944118e-03  4.3523055559819184e-03  -7.2363009445902151e-04  -1.4592680970331061e-03  -2.2344050235504503e-04  -9.8598974865860087e-04  -1.1770383521638801e-03  4.1233245431019771e-04  -5.0744374284898664e-04  2.9481125412559456e-03  -2.7966147135795484e-04  -1.0166299602250115e-03  -9.0281307856468560e-04  -1.1608755942710770e-03  1.2325559623492675e-03  -1.0297714410632637e-03  4.6561518874085016e-03  -6.5289724181956464e-04  -9.8740058605012123e-04  -8.9625350925023558e-04  1.2789851075887466e-03  5.5953161863992427e-04  -6.7503703805202179e-04  1.2650057779658910e-03  9.1086131542793334e-04  1.5002358666296072e-03  1.7064371074590552e-03  -7.9031631064792221e-04  -1.0319033522162347e-03  2.6761396178794306e-04  -1.0332637548640280e-03  -1.0606933794385131e-03  -7.4653415818375774e-04  -8.8586715095678790e-04  -1.0124306760993737e-03  -9.7938460167170576e-04  3.9065226423493802e-03  -1.1150095846277251e-03  9.7032544850663544e-04  1.6934951820245046e-03  -4.0007913009023070e-04  -7.6070338196001965e-04  6.9590861264048074e-03  -5.3286403917332872e-04  -1.4046351116890319e-03  -1.6532480429126428e-03  5.7372335097805711e-04  -1.2379676199987409e-03  -2.3425496131944650e-04  5.4677926053514174e-03  4.1237445716227582e-03  -7.8788342869722417e-04  -8.1209341791582516e-04  -7.5218741441473080e-04  -7.4890449671173489e-04  -1.4174997328934567e-03  2.0616463136790525e-04  -7.4119306945840682e-04  -4.8925675887626693e-04  -7.7791527816888117e-04  -7.7098923853737445e-04  -4.0536904844494601e-04  -9.1680087174394564e-04  -6.6311189394522804e-04  -1.1220927539721027e-03  -9.6081914737829914e-04  -1.2667062491454164e-03  -7.7631125744986786e-04  3.9587452309896333e-03  2.2471474918296271e-03  -8.1108173652287433e-04  -7.6389241257615733e-04  -8.2883334783902707e-04  -1.2699949778988821e-03  -1.0621142432297652e-03  -7.8208138903337204e-04  -4.5587670663986812e-04  -1.3032239711445507e-03  -9.1205982133068652e-04  4.5488738386167083e-03  -1.2040132840507743e-03  -2.5047997440600023e-04  -7.9331225060699654e-04  -1.1247215495463325e-03  -8.2775610527659812e-04  -1.1326257437579861e-03  -1.2290451519940087e-03  -5.9238786176156997e-04  -5.0737761718670467e-04  -1.6078250911368539e-03  -9.4023991468517130e-04  -9.2177581440848087e-04  -8.2601065946641655e-04  -1.4777098268233691e-03  -7.6221434609602358e-04  2.2348935358583563e-04  -1.2179530065625912e-04  -1.3759339589120949e-03  -7.9517548040890825e-04  5.4117581238701373e-03  -1.9139979187246753e-04  -1.1262362281925160e-03  2.0158484975604843e-03  -1.4214480128083482e-03  -6.5693121785209891e-04  -8.2063723218547401e-04  -1.1180269967756029e-03  1.4799321951297648e-03  2.7362418337631717e-03  1.2255280841225052e-03  -8.8646349327589093e-04  9.5355965181492913e-05  -8.5179832463277755e-04  -8.2630959961504100e-04  9.4812448938910048e-04  2.9818184688191764e-03  -7.3850767998080247e-04  -4.9015023408239590e-04  3.1362376941254643e-07  6.0261216544499549e-03  -1.0458342318118185e-03  -1.5843717814304631e-03  -7.1327295965745478e-04  1.4224209632150298e-03  2.2114472895318104e-04  -1.3721536241062303e-03  -9.8682551322014779e-04  -6.4441007511332094e-04  2.8904182823453776e-03  -1.4786894461362649e-03  -1.5827057213472237e-03  -1.5195458222887611e-03  -1.3649411688038602e-03  -1.1533731223418240e-03  -8.4786051323886089e-04  -6.6475969831321466e-04  -7.0739651894631160e-04  9.9167769500700231e-04  -7.8155407465244650e-04  1.6340799822349013e-04  5.7221559828263338e-03  -8.2118114156365721e-04  -1.4872531740964684e-03  -5.0661923926727985e-04  -1.2817037608709393e-03  -8.5670654463779552e-04  -1.3023624037482380e-03  -8.5249494497769188e-04  6.7928033585271845e-03  -1.6709305129915066e-03  -1.0056057483499973e-03  -8.3060016544222873e-04  -1.0079153782044394e-03  3.7772377207380615e-04  -5.4832944948997732e-04  -1.1852516658832528e-03  -8.0215213043983232e-04  -5.3966914185931802e-04  4.8359324037234586e-03  -1.1708306799493185e-03  -3.9219787701290528e-04  -6.9389964254832487e-04  -1.1265296536687325e-03  -8.1321819411129322e-04  2.6316008214611487e-03  -1.2893588586027330e-03  -6.7377938883815330e-04  -5.4991794563552521e-04  4.6246333468692160e-04  -9.2010873434482290e-04  -1.2864709007620859e-03  -1.1047812858018756e-03  3.9012350943298248e-04  -3.1445966894544565e-04  1.3181066568453983e-03  -1.2047303916764881e-03  3.9679415408270099e-03  3.8127983796617609e-03  -1.1677528671797169e-03  7.8193142034206089e-04  2.2681605673361685e-03  -7.2021960164724724e-04  -6.7546339218098024e-04  -2.5069086894418356e-04  -8.2643605093278181e-04  -1.1628392986841054e-03  -6.5332149794907694e-04  -1.3626718459464147e-03  -6.6454155882084826e-04  4.8883221249414596e-03  -9.8151189553864651e-04  2.5219130520864942e-03  -4.1381144034469505e-04  1.5557136237114662e-03  -7.1153615300089236e-04  -8.7587919106950796e-04  -9.9991436597422854e-04  -6.6398462690842909e-04  -6.1830619958404178e-04  4.5131079527599392e-03  -1.4805503791385800e-04  -1.2868799746145578e-03  -1.4242823959522029e-03  -1.0807769842000495e-03  -1.4271816901357563e-03  -1.6049545092097252e-04  1.3440533403671028e-04  -1.0076010244063787e-03  -5.9674878899997562e-04  -1.1687423107693716e-03  -6.7696476173761022e-04  -1.3204187425211427e-03  -7.2260098764001057e-04  4.1830450679975953e-04  -8.4073050547414901e-04  -5.2577971061946332e-04  -1.4053240632527428e-03  3.0433273042490376e-03  2.2528995153819039e-03  -1.5739094389025973e-03  -1.3466109601484291e-03  5.3167759366737604e-03  1.4875931590089583e-03  6.8337686277726234e-03  -5.1754220405554033e-04  6.5353693333053452e-04  5.0222381915216502e-03  -3.3085401938501643e-04  -1.3519602735903480e-03  -7.1899097462896800e-04  -3.4327535421015159e-04  -1.3349422832510242e-03  -1.2876521704123802e-03  -7.0740014918053550e-04  6.5391165201940330e-03  -2.9394084034331460e-04  2.1606135518882959e-03  -1.9338376331157309e-04  -4.3734634103636372e-04  -1.1899258657838384e-03  4.5929368514012996e-04  6.2493121958118734e-05  -1.6693958312158806e-03  -1.0968827727456504e-03  -2.9151655818058875e-05  6.0068654428620215e-03  -5.8823594222222808e-04  -5.4705941432657860e-04  5.9906009899212201e-04  7.2323887498889185e-04  -1.0877746014569521e-03  -6.2730417921039899e-04  -7.2973611085153404e-04  -5.3352673948977984e-04  -6.3787495425118748e-04  6.4992416593408330e-03  -2.5582430906582847e-04  -1.3829918069087198e-03  -6.0029228260688504e-04  -1.3256649628065479e-03  -1.0796000268696372e-03  -1.2340693586724142e-03  3.7768535733568023e-03  -7.1312870265119314e-04  -1.2578241407424124e-03  4.0920048577630782e-03  1.0589088854845085e-03  -1.0281529801766400e-03  3.4720161398692348e-04  -3.8415717060550909e-04  -1.0821647488863625e-03  -1.1620736978092884e-03  -1.1217857695204683e-03  -6.5773765710258364e-04  -1.3391741372425167e-03  -5.7302675736535297e-04  -1.3232677720137896e-03  9.5169463263470113e-04  -4.6239683813112327e-04  -6.8228132021096307e-04  -1.1773079296268252e-03  5.4247133660982822e-04  -6.8458082917573324e-04  -1.5473877444306696e-03  2.0834945190181418e-03  1.7238883647552000e-03  1.5554452188951287e-03  -2.4419749774740073e-04  -1.2008481696125844e-03  2.7921724583097971e-03  -6.5843348528342698e-04  -6.8558460743725364e-04  -1.3385726800473536e-03  -1.2412384560154639e-03  -3.3109645076014169e-04  -6.4507284803981709e-04  6.4965729348459881e-04  -1.9866480081548519e-04  2.5250632264168797e-03  1.0688885096284905e-03  8.6991474453454334e-04  -8.9554740368008549e-05  -1.0311631835000167e-03  -9.0046825505976039e-04  3.7931001302019944e-03  -1.0696362250303161e-03  -9.3763412707910236e-04  5.1778886339124504e-04  -4.7878217632084700e-04  -5.0413439162470906e-04  -1.1593049547738573e-03  -5.6594428603001378e-04  -1.1537806684503832e-03  -7.7338529645503806e-04  -5.5746015216055181e-04  -4.1014797487592329e-04  -3.7158200428422447e-04  -1.1772266659262206e-03  -5.9483862825366696e-04  5.0674885478091828e-03  -5.7800047380366737e-04  -9.8854460415741968e-04  7.9503205445386805e-04  -9.4693289085572094e-04  3.0900451184385570e-04  -1.2404440462457215e-03  -1.2999330891511134e-03  -1.5742638628555316e-03  -1.2469159877598836e-03  3.3736082100303917e-03  2.1380988123776796e-03  2.7141758799732775e-03  -5.3506686666885328e-04  -4.3171914797265860e-04  -6.0922828067422471e-04  -4.2671210157779093e-04  -1.2183300169266804e-03  3.7313795650272450e-03  -7.3020245762271858e-04  -6.1716644981851300e-04  -4.5115742695026859e-04  -8.8804285313518491e-04  -2.2385690728603453e-04  -5.0790958743400407e-04  -9.4662260373361371e-04  -8.0756629809093454e-04  4.1901376084515453e-03  -8.1832004794678650e-04  -9.2802478648320967e-04  -5.9912208727570413e-04  -9.1762036134488973e-04  -1.0767490771082086e-03  1.9797771715135390e-04  -1.0368790465022089e-03  -4.9810059471683136e-04  1.2186803346260504e-03  2.6648538540119805e-03  4.8079815373216744e-03  -1.0688559442017746e-03  -1.4344979632944510e-03  -7.3711235893749794e-04  -8.1926211801837900e-04  -4.9256189803375920e-04  -1.4105402099954742e-03  1.8671951898945804e-03  -5.6154358181319892e-04  -5.0994204607525352e-04  4.0709399322886456e-03  -5.8731507119442832e-04  -4.9067924417061076e-04  -1.2234381831141583e-03  -1.0182638836082147e-03  1.5034195843754369e-03  -1.2602901378303546e-03  -1.2530611406024036e-04  6.4157980727607544e-03  -1.4946309456209093e-03  4.4725377360013167e-03  -9.0397775709487500e-04  5.0614132491160748e-03  3.8536706379076703e-03  -1.4853792387699047e-03  5.6692735944171308e-03  -5.8325267598605839e-04  -1.5710886104404306e-03  -7.9711091138997083e-04  -1.5381738008619335e-03  -6.2483834363935776e-05  -8.3059478726751814e-04  -5.1622338321488713e-04  -1.2206025405745512e-03  -6.0983592367800103e-04  -5.0310520204325485e-04  -1.0108222034550349e-03  -1.0001441600451216e-03  -1.0685178915540471e-03  9.7314770535446510e-04  -3.7715513607068001e-04  -8.9380479607614066e-04  -1.1411670339400836e-03  -9.2262988447651406e-04  -1.4682427421369576e-03  -1.6191471495125896e-03  5.2173222885153268e-04  -4.6823402806977702e-04  -1.1696904476454432e-03  -1.0107921158537397e-03  -4.2614248030473578e-04  -5.2479557741796630e-04  -8.4847506096824218e-04  1.9229427873192111e-03  -5.6649069001679609e-04  1.5240763696794252e-03  1.2136474493750860e-03  -1.3905674823106475e-03  -4.8333602908978761e-04  -1.0241086844020842e-03  -1.0808435220371832e-03  -9.7630705903245952e-04  -4.4773186138522241e-04  -1.2630098611698271e-03  -1.5120514006297242e-03  -9.4229487831664152e-04  -2.2443853047590827e-04  1.6137959976230133e-04  -3.5494237886819280e-04  2.4288194959818446e-03  -1.0997657420433054e-03  1.4004658764129247e-03  4.7829037270126251e-04  -8.1281803765241329e-04  -2.6992451752238562e-04  -1.0310942319110645e-03  2.1113371142702404e-03  -5.0676760657390990e-04  2.8865504628266142e-03  -7.2913922813213619e-04  -8.2035022569594681e-04  6.8968866281973241e-04  5.8736136254706950e-03  2.4598839316014769e-03  -1.0351574070996169e-03  -1.5723181258650244e-03  -1.0087004972887100e-03  -5.7879554274247878e-04  -1.3202612272214017e-03  -3.4885427928963575e-04  -3.9700893586840227e-05  -5.1144916921513027e-04  5.1668389798500873e-03  -1.3750099656443802e-03  -5.2678935743166711e-04  -1.2594441789339013e-03  -3.8439754250449379e-05  6.8939498798612972e-04  2.4408655952938804e-04  -3.6149943896813993e-04  -5.8813122141738864e-04  -7.7913153820979516e-04  1.6743901271528189e-03  -2.3121376826104950e-04  -1.4141916650638080e-03  -4.7546561087713984e-04  -1.0260440981851354e-03  9.0441710622798463e-05  -4.4193706266204157e-04  -8.5398735270911946e-04  -5.8508579179516258e-04  -1.2089131912267990e-03  -9.6953547251989148e-04  -8.6930422606857553e-04  -1.0662062919536547e-03  -1.1335713283073703e-03  -9.3270074102534662e-04  -1.0164352971487678e-03  -9.9502284113220287e-04  3.8327507504028989e-03  -3.2665011017138422e-04  -2.8771484076203335e-04  2.9301756389860148e-03  -5.2302091151036167e-04  -1.1417340885105287e-03  -1.0328461760080452e-03  -5.2651826727817032e-04  -3.6502835583901102e-04  -7.5920716823520791e-04  -4.6456551106448382e-04  -6.2055654362584689e-04  -2.2037243637029657e-04  -4.4314759006558230e-04  -1.0310281169878472e-03  -1.6425354722358217e-03  -1.3336009550962628e-03  -9.0922961128432882e-04  -1.5764638017537454e-03  -3.1552429977240934e-04  -6.6031269626460015e-04  -1.6386605612157324e-03  5.0387026315240448e-03  3.9421504404853211e-03  -1.0671290090857929e-03  2.9147488841410217e-03  -1.3150438101234465e-03  -1.1518086974174090e-03  -9.9077196819776295e-04  -2.7317975593064738e-05  -8.3702489816791473e-04  -4.3696932435030128e-04  -1.1224521795246225e-03  -5.6324319935988304e-04  -4.3367571545298484e-04  -1.2312197895957605e-03  5.4223574224967683e-04  -1.0617411170351010e-03  -5.2499464075634944e-04  1.6784519798449791e-03  -1.1252349798438583e-03  -1.6451523091429896e-03  -8.3186159066930148e-04  -1.0715634801949675e-03  -1.0399713222802144e-03  -1.3145765490557338e-03  -1.6583331425279123e-03  -1.1697507664107790e-03  -1.0774839900213504e-03  -9.8337737388466077e-04  3.7531009634167358e-03  -4.5413044551387635e-04  1.7797813563597990e-04  -1.1235783045860867e-03  -9.1125760319497786e-04  -1.2622766231252618e