<?xml version="1.0"?>
<VTKFile type="UnstructuredGrid"  version="0.1"  >
<UnstructuredGrid>
<Piece  NumberOfPoints="568" NumberOfCells="1621">
<Points>
<DataArray  type="Float64"  NumberOfComponents="3"  format="ascii">0 0 0  0 1 0  1 1 0  1 0 0  0 0.05 0  0 0.1 0  0 0.15 0  0 0.2 0  0 0.25 0  0 0.3 0  0 0.35 0  0 0.4 0  0 0.45 0  0 0.5 0  0 0.55 0  0 0.6 0  0 0.65 0  0 0.7 0  0 0.75 0  0 0.8 0  0 0.85 0  0 0.9 0  0 0.95 0  0.05 1 0  0.1 1 0  0.15 1 0  0.2 1 0  0.25 1 0  0.3 1 0  0.35 1 0  0.4 1 0  0.45 1 0  0.5 1 0  0.55 1 0  0.6 1 0  0.65 1 0  0.7 1 0  0.75 1 0  0.8 1 0  0.85 1 0  0.9 1 0  0.95 1 0  1 0.95 0  1 0.9 0  1 0.85 0  1 0.8 0  1 0.75 0  1 0.7 0  1 0.65 0  1 0.6 0  1 0.55 0  1 0.5 0  1 0.45 0  1 0.4 0  1 0.35 0  1 0.3 0  1 0.25 0  1 0.2 0  1 0.15 0  1 0.1 0  1 0.05 0  0.95 0 0  0.9 0 0  0.85 0 0  0.8 0 0  0.75 0 0  0.7 0 0  0.65 0 0  0.6 0 0  0.55 0 0  0.5 0 0  0.45 0 0  0.4 0 0  0.35 0 0  0.3 0 0  0.25 0 0  0.2 0 0  0.15 0 0  0.1 0 0  0.05 0 0  0.501197 0.50334 0  0.703589 0.702521 0  0.702521 0.296411 0  0.297479 0.703589 0  0.296411 0.297479 0  0.780314 0.5 0  0.5 0.219686 0  0.5 0.780314 0  0.219686 0.5 0  0.828981 0.828981 0  0.828981 0.171019 0  0.169013 0.831998 0  0.168002 0.169013 0  0.636705 0.565665 0  0.566986 0.359843 0  0.433014 0.640157 0  0.359843 0.433014 0  0.845985 0.639693 0  0.639693 0.154015 0  0.360307 0.845985 0  0.154015 0.360307 0  0.639693 0.845985 0  0.845985 0.360307 0  0.154015 0.639693 0  0.360307 0.154015 0  0.666416 0.443459 0  0.556167 0.665486 0  0.441301 0.333827 0  0.333827 0.5586989999999999 0  0.885632 0.534321 0  0.534321 0.114368 0  0.465728 0.885611 0  0.114368 0.465679 0  0.908927 0.741988 0  0.741988 0.0910728 0  0.257146 0.89586 0  0.10414 0.257146 0  0.736946 0.889491 0  0.110478 0.736882 0  0.889491 0.263054 0  0.263118 0.110478 0  0.74381 0.598195 0  0.598195 0.25619 0  0.401805 0.74381 0  0.25619 0.401805 0  0.60492 0.744174 0  0.744174 0.39508 0  0.255826 0.60492 0  0.39508 0.255826 0  0.9020089999999999 0.90045 0  0.09807680000000001 0.900828 0  0.90045 0.09799099999999999 0  0.09917239999999999 0.09807680000000001 0  0.902899 0.435907 0  0.435907 0.09710100000000001 0  0.564093 0.902899 0  0.09710100000000001 0.564093 0  0.796296 0.739828 0  0.739828 0.203704 0  0.260172 0.796296 0  0.203704 0.260172 0  0.713973 0.779985 0  0.779985 0.286027 0  0.220015 0.713973 0  0.286027 0.220015 0  0.590243 0.491891 0  0.543184 0.5738760000000001 0  0.490839 0.410096 0  0.423065 0.5490159999999999 0  0.642499 0.651952 0  0.651648 0.359449 0  0.348048 0.642499 0  0.357501 0.348048 0  0.913187 0.817096 0  0.817096 0.086813 0  0.181726 0.918388 0  0.081612 0.181726 0  0.8182739999999999 0.918388 0  0.08287509999999999 0.821181 0  0.918388 0.181726 0  0.178819 0.08287509999999999 0  0.697072 0.5148430000000001 0  0.5148430000000001 0.302928 0  0.484819 0.700151 0  0.297452 0.483789 0  0.918475 0.609384 0  0.609384 0.0815251 0  0.390947 0.918901 0  0.0815251 0.390616 0  0.65773 0.9267030000000001 0  0.0732968 0.65773 0  0.9267030000000001 0.34227 0  0.34227 0.0732968 0  0.821542 0.430871 0  0.569129 0.821542 0  0.430871 0.178458 0  0.178458 0.569129 0  0.432542 0.461024 0  0.817943 0.567593 0  0.567593 0.182057 0  0.432407 0.817943 0  0.182057 0.432407 0  0.777698 0.668203 0  0.668203 0.222302 0  0.331797 0.777698 0  0.222302 0.331797 0  0.9310619999999999 0.677573 0  0.677573 0.0689379 0  0.322427 0.9310619999999999 0  0.0689379 0.322427 0  0.551594 0.435653 0  0.481409 0.589811 0  0.370759 0.498543 0  0.737524 0.447649 0  0.552351 0.737524 0  0.447649 0.262476 0  0.261045 0.551756 0  0.419122 0.394199 0  0.935107 0.486698 0  0.486698 0.0648933 0  0.513302 0.935107 0  0.0648933 0.513302 0  0.615806 0.406535 0  0.839987 0.497717 0  0.497717 0.160013 0  0.502285 0.839986 0  0.160013 0.502283 0  0.843504 0.700857 0  0.700857 0.156496 0  0.299143 0.843504 0  0.156496 0.299143 0  0.771061 0.839909 0  0.839909 0.228939 0  0.158997 0.772163 0  0.227837 0.158997 0  0.678082 0.763958 0  0.763958 0.321918 0  0.236042 0.678082 0  0.321918 0.236042 0  0.696016 0.645186 0  0.645149 0.304216 0  0.354814 0.696016 0  0.303984 0.354814 0  0.608467 0.612335 0  0.390978 0.601224 0  0.604854 0.939469 0  0.0605305 0.604854 0  0.939469 0.395146 0  0.395146 0.0605305 0  0.5036929999999999 0.644552 0  0.0584335 0.941566 0  0.0584335 0.0584335 0  0.941566 0.941566 0  0.941566 0.0584335 0  0.947062 0.77689 0  0.77689 0.052938 0  0.231675 0.9446560000000001 0  0.0553438 0.231675 0  0.767774 0.944208 0  0.0564522 0.7654339999999999 0  0.944208 0.232226 0  0.234566 0.0564522 0  0.837463 0.782849 0  0.782849 0.162537 0  0.226264 0.845341 0  0.154659 0.226264 0  0.948198 0.553072 0  0.553072 0.0518019 0  0.447089 0.948128 0  0.0518019 0.446928 0  0.693805 0.856075 0  0.143922 0.6937990000000001 0  0.856075 0.306195 0  0.306201 0.143922 0  0.640158 0.511725 0  0.511134 0.358157 0  0.6966869999999999 0.570512 0  0.569139 0.304297 0  0.43071 0.695958 0  0.30396 0.430595 0  0.74718 0.544655 0  0.544584 0.252871 0  0.455391 0.747302 0  0.252569 0.455331 0  0.947531 0.866964 0  0.866964 0.052469 0  0.138357 0.941004 0  0.0589959 0.138357 0  0.861653 0.940959 0  0.0548727 0.865893 0  0.940959 0.138347 0  0.134107 0.0548727 0  0.612047 0.692886 0  0.692863 0.386424 0  0.307114 0.612047 0  0.393468 0.305977 0  0.870133 0.5826710000000001 0  0.5826710000000001 0.129867 0  0.417439 0.870127 0  0.129867 0.417329 0  0.7423 0.749179 0  0.749179 0.2577 0  0.250821 0.7423 0  0.2577 0.250821 0  0.795216 0.618966 0  0.618966 0.204784 0  0.381034 0.795216 0  0.204784 0.381034 0  0.7120919999999999 0.94636 0  0.0537302 0.711749 0  0.94636 0.287908 0  0.288251 0.0537302 0  0.8770520000000001 0.851749 0  0.851749 0.122948 0  0.122948 0.851749 0  0.148251 0.122948 0  0.552993 0.530873 0  0.802831 0.38703 0  0.61297 0.802831 0  0.38703 0.197169 0  0.197169 0.61297 0  0.796409 0.794225 0  0.794225 0.203591 0  0.205967 0.800275 0  0.199725 0.205967 0  0.656794 0.715189 0  0.716724 0.342703 0  0.284811 0.656794 0  0.343558 0.284738 0  0.890647 0.378392 0  0.621608 0.890647 0  0.378392 0.109353 0  0.109353 0.621608 0  0.601199 0.535424 0  0.450656 0.507538 0  0.672081 0.8084789999999999 0  0.8084789999999999 0.327919 0  0.191521 0.672081 0  0.327919 0.191521 0  0.514948 0.452937 0  0.665924 0.608791 0  0.607792 0.332315 0  0.391531 0.663469 0  0.334076 0.391209 0  0.810413 0.876603 0  0.876603 0.189587 0  0.880408 0.669233 0  0.669233 0.119592 0  0.330767 0.880408 0  0.119592 0.330767 0  0.956387 0.440061 0  0.440061 0.0436128 0  0.559939 0.956387 0  0.0436128 0.559939 0  0.125875 0.811032 0  0.188968 0.125875 0  0.509224 0.5541700000000001 0  0.890801 0.487581 0  0.487581 0.109199 0  0.512425 0.890798 0  0.109199 0.512419 0  0.780312 0.433068 0  0.566932 0.780312 0  0.433068 0.219688 0  0.21945 0.566833 0  0.951367 0.717892 0  0.717892 0.0486329 0  0.283208 0.949157 0  0.0508433 0.283208 0  0.627431 0.455175 0  0.18922 0.8735579999999999 0  0.126442 0.18922 0  0.955782 0.637538 0  0.637538 0.0442184 0  0.362487 0.955813 0  0.0442184 0.362462 0  0.5549230000000001 0.618669 0  0.458194 0.377024 0  0.43977 0.5931340000000001 0  0.37829 0.547156 0  0.853117 0.8896230000000001 0  0.8896230000000001 0.146883 0  0.148476 0.887779 0  0.112221 0.148476 0  0.887683 0.780204 0  0.780204 0.112317 0  0.75039 0.711597 0  0.711597 0.24961 0  0.288403 0.75039 0  0.24961 0.288403 0  0.956111 0.826759 0  0.826759 0.0438895 0  0.180352 0.9608100000000001 0  0.0391903 0.180352 0  0.81954 0.960711 0  0.03884 0.820502 0  0.960711 0.18046 0  0.179498 0.03884 0  0.40313 0.354814 0  0.534628 0.399828 0  0.340817 0.472532 0  0.332674 0.514915 0  0.548727 0.479748 0  0.447621 0.423403 0  0.73759 0.490731 0  0.700155 0.467369 0  0.490719 0.262418 0  0.467007 0.299887 0  0.528973 0.697984 0  0.5069709999999999 0.738151 0  0.261312 0.507328 0  0.967797 0.328946 0  0.329015 0.0322209 0  0.671054 0.967797 0  0.0322209 0.6709850000000001 0  0.473444 0.461527 0  0.387884 0.465432 0  0.777517 0.575781 0  0.575775 0.222487 0  0.424223 0.7775260000000001 0  0.222465 0.424218 0  0.66252 0.883965 0  0.883965 0.33748 0  0.116034 0.662519 0  0.337481 0.116034 0  0.5945279999999999 0.655016 0  0.346094 0.595962 0  0.217206 0.8955610000000001 0  0.104439 0.217206 0  0.8433349999999999 0.54048 0  0.54048 0.156665 0  0.459537 0.843332 0  0.156665 0.45952 0  0.95886 0.593144 0  0.593144 0.0411399 0  0.406856 0.95886 0  0.0411399 0.406856 0  0.855515 0.453539 0  0.453539 0.144485 0  0.546462 0.855515 0  0.144485 0.546461 0  0.8513039999999999 0.404815 0  0.595186 0.8513039999999999 0  0.404815 0.148696 0  0.148696 0.595185 0  0.380678 0.392221 0  0.778689 0.904145 0  0.904145 0.221311 0  0.46626 0.6633 0  0.743165 0.642037 0  0.6420360000000001 0.256845 0  0.357963 0.743165 0  0.256835 0.357963 0  0.466402 0.547839 0  0.0996948 0.77926 0  0.22074 0.0996948 0  0.878082 0.624838 0  0.624838 0.121918 0  0.375235 0.878152 0  0.121918 0.375162 0  0.484951 0.9626670000000001 0  0.0373214 0.484924 0  0.962679 0.515076 0  0.515076 0.0373214 0  0.818209 0.669198 0  0.669198 0.181791 0  0.330802 0.818209 0  0.181791 0.330802 0  0.692619 0.900519 0  0.0994921 0.692536 0  0.900519 0.307381 0  0.307464 0.0994921 0  0.0944579 0.959942 0  0.959942 0.905542 0  0.0400585 0.0944579 0  0.905542 0.0400585 0  0.0400585 0.905542 0  0.905542 0.959942 0  0.0944579 0.0400585 0  0.959942 0.0944579 0  0.678611 0.676891 0  0.676701 0.322599 0  0.323109 0.678611 0  0.321414 0.323103 0  0.801046 0.537704 0  0.537691 0.198963 0  0.462307 0.801067 0  0.198909 0.462293 0  0.668894 0.540587 0  0.540526 0.331306 0  0.656264 0.405647 0  0.807819 0.465938 0  0.465938 0.192181 0  0.534062 0.807819 0  0.192153 0.53405 0  0.9118230000000001 0.568773 0  0.568773 0.08817700000000001 0  0.431273 0.909915 0  0.08817700000000001 0.431227 0  0.4072 0.504785 0  0.967642 0.6766 0  0.6766 0.0323578 0  0.323624 0.967206 0  0.0327999 0.32362 0  0.83436 0.602711 0  0.602711 0.16564 0  0.397289 0.83436 0  0.16564 0.397
[...]
<CellData  Scalars="f">
<DataArray  type="Float64"  Name="f"  format="ascii">3 3 3 3 3 3 3 3 3 3 3 3 3 3 3 3 3 3 3 3 3 3 3 3 3 3 3 3 3 3 3 3 3 3 3 3 1 3 3 0 3 3 0 3 3 1 3 3 2 3 3 0 3 3 0 3 3 2 3 3 3 3 3 3 3 3 3 3 3 3 3 3 3 3 3 3 3 3 3 3 3 3 3 3 3 3 3 3 3 3 3 3 3 3 3 1 3 0 3 0 3 2 3 0 3 2 3 1 3 0 3 3 3 3 3 3 3 3 3 3 3 3 3 3 3 3 3 3 3 3 3 3 3 3 3 3 3 3 3 3 3 3 3 3 3 3 3 3 3 3 3 3 3 3 3 3 3 3 3 3 3 3 3 3 3 3 3 3 3 3 3 3 3 3 3 3 3 3 3 3 3 3 3 3 3 3 3 3 3 3 3 3 3 3 3 3 3 3 3 3 3 3 3 3 3 3 3 3 3 3 3 3 3 3 3 3 3 3 3 3 3 3 3 3 3 3 3 3 3 3 3 3 3 3 3 3 3 3 3 3 3 3 3 3 3 3 3 3 3 3 3 3 3 3 3 3 3 3 3 3 3 3 3 3 3 3 3 3 0 3 2 3 1 3 0 3 3 3 3 3 3 3 3 3 3 3 3 3 3 3 3 3 3 3 3 3 3 3 3 3 3 3 3 3 3 3 3 3 3 3 3 3 3 3 3 3 3 3 3 3 3 3 3 3 3 3 3 3 3 3 3 3 3 3 3 3 3 3 3 3 3 3 3 3 3 3 3 3 3 3 3 3 3 3 3 3 3 3 3 3 3 3 3 3 3 3 3 3 3 3 3 3 3 3 3 3 3 3 3 3 3 3 3 3 3 3 3 3 3 3 3 3 3 3 3 3 3 3 3 3 3 3 3 3 3 3 3 3 3 3 3 3 3 3 3 3 3 3 3 3 3 3 3 3 3 3 3 3 3 3 3 3 3 3 3 3 3 3 3 3 3 3 3 3 3 3 3 3 3 3 3 3 3 3 3 3 3 3 3 3 3 3 3 3 3 3 3 3 3 3 3 3 3 3 3 3 3 3 3 3 3 3 3 3 3 3 3 3 3 3 3 3 3 3 3 3 3 3 3 3 3 0 3 2 3 1 3 0 3 3 3 3 3 3 3 3 3 3 3 3 3 3 3 3 3 3 3 3 3 3 3 3 3 3 3 3 3 3 3 3 3 3 3 3 3 3 3 3 3 3 3 3 3 3 3 3 3 3 3 3 3 3 3 3 3 3 3 3 3 3 3 3 3 3 3 3 3 3 3 3 3 3 3 3 3 3 3 3 3 3 3 3 3 3 3 3 3 3 3 3 3 3 3 3 3 3 3 3 3 3 3 3 3 3 3 3 3 3 3 3 3 3 3 3 3 3 3 3 3 3 3 3 3 3 3 3 3 3 3 3 3 3 3 3 3 3 3 3 3 3 3 3 3 3 3 3 3 3 3 3 3 3 3 1 3 3 0 3 3 0 3 3 2 3 3 3 3 3 3 3 3 3 3 3 3 3 3 3 3 3 3 3 3 3 3 3 3 3 3 3 3 3 3 3 3 3 3 3 3 3 3 3 3 3 3 3 3 3 3 3 3 3 3 3 3 3 3 3 3 3 3 3 3 3 3 3 3 3 3 3 3 3 3 3 3 3 3 3 3 3 3 3 3 3 3 3 3 3 3 3 3 3 3 3 3 3 3 3 3 3 3 3 3 3 3 3 3 3 3 3 3 3 3 3 3 3 3 3 3 3 3 3 3 3 3 3 3 3 3 3 3 3 3 3 3 3 3 3 3 3 3 3 3 3 3 3 3 3 3 3 3 3 3 3 3 3 3 3 3 3 3 3 3 2 3 0 3 0 3 1 0 2 1 0 0 2 1 0 3 3 3 3 3 3 3 3 3 3 3 3 3 3 3 3 3 3 3 3 3 3 3 3 3 3 3 3 3 3 3 3 3 3 3 3 3 3 3 3 3 3 3 3 3 3 3 3 3 3 3 3 3 3 3 3 3 3 3 3 3 3 3 3 3 3 3 3 3 3 3 3 3 3 3 3 3 3 3 3 3 3 3 3 3 3 3 3 3 3 3 3 3 3 3 3 3 3 3 3 3 3 3 3 3 3 3 3 3 3 3 3 3 3 3 3 3 3 3 3 3 3 3 3 3 3 3 3 3 3 3 3 3 3 3 3 3 3 3 3 3 3 3 3 3 3 3 3 3 3 3 3 3 3 3 3 3 3 3 3 3 3 3 3 3 3 3 3 3 3 3 3 3 3 3 3 3 3 3 3 3 3 3 3 3 3 3 3 3 3 3 3 3 3 3 3 3 3 3 3 3 3 3 3 3 3 3 3 3 3 3 3 3 3 3 3 3 3 3 3 3 1 3 0 3 0 3 2 3 3 3 3 3 3 3 3 3 3 3 3 3 3 3 3 3 3 3 3 3 3 3 3 3 3 3 3 3 3 3 3 3 3 3 3 3 3 3 3 3 3 3 3 3 3 3 3 3 3 3 3 3 3 3 3 3 3 3 3 3 3 3 3 3 3 3 3 3 3 3 3 3 3 3 3 3 3 3 3 3 3 3 3 3 3 3 3 3 3 3 3 3 3 3 3 3 3 3 3 3 3 3 3 3 3 3 3 3 3 3 3 3 3 3 3 3 3 3 3 3 3 3 3 3 3 3 3 3 3 3 3 3 3 3 3 3 3 3 3 3 3 3 3 3 3 3 3 3 3 3 3 3 3 3 3 3 3 3 3 3 3 3 3 3 3 3 3 3 3 3 3 3 3 3 3 3 3 3 3 3 3 3 3 3 3 3 3 3 3 3 3 3 3 3 3 3 3 3 3 3 3 3 3 3 3 3 3 3 3 3 3 3 3 3 3 3 3 3 3 3 3 3 3 3 3 3 3 3 3 3 3 3 3 3 3 3 3 3 3 3 3 3 3 3 3 3 3 3 3 3 3 3 3 3 3 3 3 3 3 3 3 3 3 3 3 3 3 3 3 3 3 3 3 3 3 3 1 0 0 2 0 2 1 0 3 3 3 3 3 3 3 3 3 3 3 3 3 0 3 2 3 1 3 0 3 0 3 1 3 2 3 0 3 3 3 3 3 3 3 3 3 3 3 3 3 3 3 3 3 3 3 3 3 3 3 3 3 3 3 1 3 0 3 0 3 2 3 3 3 3 3 3 3 3 3 3 3 0 3 2 0 2 3 1 0 3 1 0 3 3 3 3 3 3 3 3 3 3 3 3 3 3 3 3 3 3 3 3 3 3 3 3 3 3 3 3 3 3 3 3 3 3 3 3 3 3 3 3 3 3 3 3 3 3 3 3 3 3 3 3 3 3 3 3 3 3 3 3 3 3 3 3 3 3 3 3 3 3 1 3 0 3 0 3 2 3 3 3 1 3 3 0 3 3 0 3 3 2 3 3 3 3 3 3 3 3 3 3 3 3 3 3 3 3 3 3 3 3 3 3 3 3 3 3 3 3 3 3 3 3 3 3 3 3 3 3 3 3 3 3 3 3 3 3 3 3 3 3 3 3 3 3 3 3 3 3 3 3 3 3 3 3 3 3 3 3 3 3 3 3 3 3 3 3 3 3 3 3 3 3 3 3 3 3 </DataArray>
</CellData>
</Piece>
</UnstructuredGrid>
</VTKFile>