<?xml version="1.0"?>
<VTKFile type="UnstructuredGrid"  version="0.1"  >
<UnstructuredGrid>
<Piece  NumberOfPoints="550" NumberOfCells="1017">
<Points>
<DataArray  type="Float64"  NumberOfComponents="3"  format="ascii">0 0 0  0 1 0  1 1 0  1 0 0  1 0.9499999999997918 0  1 0.8999999999995836 0  1 0.8499999999996529 0  1 0.7999999999999998 0  1 0.7500000000003466 0  1 0.7000000000006934 0  1 0.6500000000010401 0  1 0.6000000000013869 0  1 0.5500000000017335 0  1 0.5000000000020587 0  1 0.4500000000018723 0  1 0.4000000000016644 0  1 0.3500000000014564 0  1 0.3000000000012483 0  1 0.2500000000010403 0  1 0.2000000000008322 0  1 0.1500000000006241 0  1 0.100000000000416 0  1 0.05000000000020799 0  0.9499999999997918 0 0  0.8999999999995836 0 0  0.8499999999996529 0 0  0.7999999999999998 0 0  0.7500000000003466 0 0  0.7000000000006934 0 0  0.6500000000010401 0 0  0.6000000000013869 0 0  0.5500000000017335 0 0  0.5000000000020587 0 0  0.4500000000018723 0 0  0.4000000000016644 0 0  0.3500000000014564 0 0  0.3000000000012483 0 0  0.2500000000010403 0 0  0.2000000000008322 0 0  0.1500000000006241 0 0  0.100000000000416 0 0  0.05000000000020799 0 0  0 0.04999999999989965 0  0 0.09999999999981467 0  0 0.1499999999997036 0  0 0.1999999999995579 0  0 0.2499999999994121 0  0 0.2999999999992664 0  0 0.3499999999991206 0  0 0.3999999999989749 0  0 0.4499999999988292 0  0 0.4999999999986943 0  0 0.5499999999988151 0  0 0.5999999999989468 0  0 0.6499999999990784 0  0 0.69999999999921 0  0 0.7499999999993417 0  0 0.7999999999994734 0  0 0.8499999999996051 0  0 0.8999999999997368 0  0 0.9499999999998684 0  0.04906101305702289 0.9993806446053735 0  0.09811188883148581 0.9982357281795601 0  0.1471001154266491 0.9955564523093228 0  0.1958503409384353 0.9900989151177796 0  0.2439644631964138 0.9805794277778499 0  0.2909381451450369 0.9664691725527986 0  0.3366552899050977 0.9486758774858468 0  0.3818063059903915 0.9294727536633086 0  0.4277307751381588 0.9122460457332434 0  0.4755270790822063 0.9014856197818122 0  0.5244729209152333 0.9014856197815024 0  0.5722692248596354 0.9122460457325435 0  0.6181936940077263 0.9294727536625258 0  0.6633447100932771 0.9486758774851638 0  0.7090618548535697 0.9664691725523106 0  0.7560355368023949 0.980579427777554 0  0.8041496590606322 0.9900989151176391 0  0.8528998845726835 0.9955564523092709 0  0.9018881111680803 0.9982357281795444 0  0.9509389869427761 0.9993806446053706 0  0.497988536479463 0.4584073019730411 0  0.7099702738566043 0.6550648209447739 0  0.2881797556556538 0.6580474012173165 0  0.7271624639501286 0.2765323143321037 0  0.2791296352969418 0.279129635296804 0  0.5029765116608067 0.2244833490023443 0  0.4989600659691972 0.6939836431462296 0  0.2033252247462962 0.4687222542556028 0  0.7966747752548088 0.4687222542555489 0  0.8140040065340377 0.796790508767268 0  0.1859959934654943 0.7967905087677316 0  0.8367131915836784 0.163286808416297 0  0.1632868084146624 0.163286808414744 0  0.6453609995647073 0.5099358210941198 0  0.3566876462107419 0.5115313391776422 0  0.366330491914494 0.1537327490360761 0  0.6350089430390223 0.1564083186971524 0  0.6256077035293737 0.7747355941702203 0  0.3804539967478772 0.7740615012125441 0  0.8537034621138777 0.6114253852868063 0  0.1462965378853473 0.6114253852860367 0  0.8540154476451401 0.3357145121540915 0  0.1485779226443829 0.3403146996612902 0  0.4098067118202697 0.328790275695638 0  0.5860867344114348 0.3383171270930655 0  0.5348725403002087 0.5700372518037082 0  0.2984303371841633 0.397350835064477 0  0.6987020490645841 0.399490149149041 0  0.4049759288508972 0.6181863643055633 0  0.4804162381344986 0.1068520595671234 0  0.8867215939725013 0.7162935324479411 0  0.1132784060276948 0.7162935324475421 0  0.7118827089538876 0.8595108824963797 0  0.2881172910444539 0.8595108824978546 0  0.2614222467229357 0.1077951146587267 0  0.8802222847476107 0.8913981749734063 0  0.1197777152519857 0.8913981749737112 0  0.7395128005310714 0.1075815342612989 0  0.5031143288195671 0.7970861489768863 0  0.6002407586762892 0.6559391312266573 0  0.1062056399126682 0.5071680179605693 0  0.8943840700336749 0.5077849506273201 0  0.2646965839429202 0.5581556705167923 0  0.7324329802645093 0.5557216570089869 0  0.09788306269982677 0.2468340596333699 0  0.9021169373003173 0.2468340596340061 0  0.73984100039498 0.7515785488176419 0  0.2601369192807154 0.7515814848938437 0  0.5978405094655422 0.2418827023833308 0  0.4062634504318672 0.2409518474851967 0  0.4481782333970171 0.5320175370895638 0  0.9129514285743811 0.08761990709072688 0  0.08704857142492065 0.08761990709014901 0  0.9070999625353762 0.4152465125947262 0  0.09263311505006823 0.4160388542716925 0  0.4243790624188805 0.4324353407115809 0  0.5859050047282279 0.4310311283856017 0  0.7899116340094616 0.8943409225672332 0  0.2100883659895949 0.894340922567875 0  0.5648486723820472 0.08786773098024007 0  0.2005651281433269 0.6832313195276902 0  0.7994348718572912 0.6832313195279438 0  0.5076141610746335 0.368813734660207 0  0.8092950655222786 0.2541680407123311 0  0.193970587180641 0.2597257293119042 0  0.9117887731334324 0.8001477908903271 0  0.08821122686662908 0.8001477908901284 0  0.2179661638017719 0.3828150261051088 0  0.7694221999188583 0.3508870747633004 0  0.7122173898126091 0.1929626809285103 0  0.2900514911599287 0.1932962160677438 0  0.4170666742287715 0.7110508555396209 0  0.8142549895534523 0.08116545095633895 0  0.1862152374457486 0.08139832558633708 0  0.655210088419087 0.5921171689211702 0  0.5688761755219747 0.8264065308890882 0  0.4249008145049082 0.8299196198098939 0  0.4015927023115053 0.08039962182133037 0  0.2826834228534819 0.4757398418386529 0  0.7173568580752416 0.4758877314737053 0  0.6614754433566568 0.07849641619564079 0  0.5493000527839668 0.1676759579069589 0  0.9228364146808379 0.6472468599235626 0  0.07716358531920456 0.64724685992316 0  0.3328961630693867 0.5867533784213059 0  0.07496900992773541 0.1705549874941506 0  0.9250309900726172 0.170554987494159 0  0.5549543261312793 0.7418652591316373 0  0.3321525881442995 0.3273036384294685 0  0.6673202732732456 0.3280586208004416 0  0.8216689886839422 0.5449120881314328 0  0.1781061037803688 0.5463707183778782 0  0.652220797975875 0.7099201630968428 0  0.3437345163418128 0.7120283053639888 0  0.5529336723981784 0.5012571215062485 0  0.3272574263785611 0.06785029339498994 0  0.4768728713648041 0.6174498230716563 0  0.07436560294268681 0.3260001398203531 0  0.9256343970573113 0.3260001398214121 0  0.4692493108420644 0.2919927799183104 0  0.6393421909641838 0.8619869241459557 0  0.3606578090336758 0.8619869241473265 0  0.8335441464910135 0.405405100845474 0  0.7787324660339162 0.6149341059466247 0  0.2160572705802657 0.6077513337413187 0  0.4453464365204389 0.1794677106321587 0  0.06881687374885942 0.5730216308552222 0  0.9311831262511342 0.5730216308560944 0  0.5386998263299999 0.2946543462823444 0  0.2192312121499382 0.313678569640613 0  0.3386732260852931 0.2326635766659141 0  0.4424744199148112 0.7529302594542157 0  0.6684263797345497 0.2334751222993877 0  0.1590226995577914 0.4173565935897081 0  0.2256950786900906 0.1927915365771866 0  0.9385539332878714 0.9354724224497755 0  0.06144606671197306 0.9354724224499156 0  0.7320286259182206 0.8965142663753359 0  0.2679713740803262 0.8965142663762948 0  0.6045133442934661 0.5638060084001053 0  0.7754558370861658 0.1930401988552442 0  0.7590840627563639 0.4174154252495469 0  0.1769523279484783 0.7517819152131314 0  0.8230476720512457 0.7517819152128051 0  0.5506958645823316 0.6422586393055837 0  0.3443158638836945 0.4445663186397086 0  0.6507230893322014 0.4592858287886739 0  0.6801485815011414 0.7877357937013862 0  0.3198574231714782 0.7877523704436945 0  0.6344430892085821 0.3856847365344637 0  0.3651081376945156 0.3854919294225705 0  0.2875359085589819 0.3498970377543069 0  0.8478175308582072 0.9337286717473385 0  0.1521824691411336 0.9337286717476594 0  0.5115636995105701 0.06332858610312717 0  0.06484520468448922 0.4677887656173726 0  0.9378077210240451 0.4678957430381395 0  0.3926471750747955 0.5580905768432731 0  0.8481743810086595 0.4570496657684 0  0.361018506447767 0.6447601242352301 0  0.9345100219811358 0.7459899688935695 0  0.06548997801900489 0.7459899688932343 0  0.7651275740464526 0.8044504553813514 0  0.2348697973426467 0.8044508049153875 0  0.4620629034947289 0.3962846766097844 0  0.9328105476274026 0.8557552033655749 0  0.06718945237252982 0.8557552033655705 0  0.5421886996222711 0.4043005125491553 0  0.2339417689386304 0.05813970222260075 0  0.7667462779163609 0.05752737585803633 0  0.1441107676374367 0.6661800122599366 0  0.8558892323632254 0.666180012260469 0  0.8401853405951945 0.8583683030252577 0  0.1598146594043228 0.8583683030257707 0  0.4463333808152168 0.4777532615733638 0  0.618496796971313 0.05053834512807287 0  0.4989976172023128 0.5075905218352273 0  0.4958926578203653 0.1600277630077706 0  0.3722696394181107 0.3045073178639025 0  0.8054763565371981 0.3070513922779309 0  0.6003146286429416 0.7120967017989196 0  0.4539235535202961 0.05776791785246826 0  0.2565373574585441 0.425517726675004 0  0.6227549034277216 0.2927333031411963 0  0.3100392747605669 0.1431472680729582 0  0.2062843415493626 0.1273850995114242 0  0.1571824596326774 0.4664557693883705 0  0.6918302725586892 0.1417380857206577 0  0.9495052985641519 0.2793639828653455 0  0.05049470143603183 0.279363982864111 0  0.04879461066683867 0.3723947432887745 0  0.9511672575594448 0.3722815516221104 0  0.7944401987080585 0.1271487945395706 0  0.1392348903829002 0.2837758107026646 0  0.8590981172742423 0.2822963125534219 0  0.9441210209760875 0.05587897902391242 0  0.05587897902335143 0.05587897902338768 0  0.4984985816789013 0.8503962183825986 0  0.7455433041831918 0.6950283224669082 0  0.2544566958162103 0.6950283224702735 0  0.6791642295795414 0.8962200891763429 0  0.3208357704186351 0.8962200891774521 0  0.8696371112807181 0.05210443380690444 0  0.1303628887180615 0.05210443380605537 0  0.858280319352661
[...]
<PointData  Vectors="f_46-0"> 
<DataArray  type="Float64"  Name="f_46-0"  NumberOfComponents="3" format="ascii">-6.5750641766484186e-01 -2.3762307032762173e-01 0.0000000000000000e+00  1.6925485086666530e-18 0.0000000000000000e+00 0.0000000000000000e+00  -6.7783862466051062e-05 0.0000000000000000e+00 0.0000000000000000e+00  -4.2721195615848599e-05 -7.3428128670860114e-18 0.0000000000000000e+00  -1.5658247773117034e-01 0.0000000000000000e+00 0.0000000000000000e+00  -3.0927672583117310e-01 0.0000000000000000e+00 0.0000000000000000e+00  -4.5454801239491099e-01 0.0000000000000000e+00 0.0000000000000000e+00  -5.8836532314519741e-01 0.0000000000000000e+00 0.0000000000000000e+00  -7.0782013470241167e-01 0.0000000000000000e+00 0.0000000000000000e+00  -8.1005674319422172e-01 0.0000000000000000e+00 0.0000000000000000e+00  -8.9202944719734101e-01 0.0000000000000000e+00 0.0000000000000000e+00  -9.5194761115058713e-01 0.0000000000000000e+00 0.0000000000000000e+00  -9.8873719569372953e-01 0.0000000000000000e+00 0.0000000000000000e+00  -1.0009714758800339e+00 0.0000000000000000e+00 0.0000000000000000e+00  -9.8865075843223416e-01 0.0000000000000000e+00 0.0000000000000000e+00  -9.5206483773495310e-01 0.0000000000000000e+00 0.0000000000000000e+00  -8.9188635731723942e-01 0.0000000000000000e+00 0.0000000000000000e+00  -8.0979842580091765e-01 0.0000000000000000e+00 0.0000000000000000e+00  -7.0786915724793875e-01 0.0000000000000000e+00 0.0000000000000000e+00  -5.8834116672373316e-01 0.0000000000000000e+00 0.0000000000000000e+00  -4.5445040271485715e-01 0.0000000000000000e+00 0.0000000000000000e+00  -3.0934538104669068e-01 0.0000000000000000e+00 0.0000000000000000e+00  -1.5663061945470663e-01 0.0000000000000000e+00 0.0000000000000000e+00  -1.1391835664786221e-01 9.8371498324472256e-02 0.0000000000000000e+00  -2.5549114143431945e-01 2.8489998066312947e-02 0.0000000000000000e+00  -3.5355508960234011e-01 -5.2026255237070239e-02 0.0000000000000000e+00  -4.3025759056139690e-01 -1.2089438190882004e-01 0.0000000000000000e+00  -4.8947471374225765e-01 -1.7878564960649873e-01 0.0000000000000000e+00  -5.3827339046873235e-01 -2.2290359047665093e-01 0.0000000000000000e+00  -5.7556987657855951e-01 -2.5657372609081641e-01 0.0000000000000000e+00  -6.0396898181864855e-01 -2.7949040479695098e-01 0.0000000000000000e+00  -6.2662246487465878e-01 -2.9322222363523337e-01 0.0000000000000000e+00  -6.4244220342272729e-01 -3.0069589235020766e-01 0.0000000000000000e+00  -6.5321320331681432e-01 -3.0201519361664797e-01 0.0000000000000000e+00  -6.6101164749847574e-01 -2.9860073621108740e-01 0.0000000000000000e+00  -6.6525628783980362e-01 -2.9203656569534664e-01 0.0000000000000000e+00  -6.6717984557420085e-01 -2.8335691474829477e-01 0.0000000000000000e+00  -6.6703730502427916e-01 -2.7347606993847767e-01 0.0000000000000000e+00  -6.6577904461879411e-01 -2.6342177707322190e-01 0.0000000000000000e+00  -6.6385259104198913e-01 -2.5389187064553836e-01 0.0000000000000000e+00  -6.6135054617616218e-01 -2.4580214584891485e-01 0.0000000000000000e+00  -6.5898908923465116e-01 -2.4001278251729305e-01 0.0000000000000000e+00  -6.5563237375675076e-01 -2.3586910632285726e-01 0.0000000000000000e+00  -6.5111795700575492e-01 -2.3241940330057848e-01 0.0000000000000000e+00  -6.4461676390144684e-01 -2.2694296223383606e-01 0.0000000000000000e+00  -6.3593866376627228e-01 -2.1956407487715451e-01 0.0000000000000000e+00  -6.2441422508699240e-01 -2.0978597413392683e-01 0.0000000000000000e+00  -6.0957652882707547e-01 -1.9819067391261530e-01 0.0000000000000000e+00  -5.9039886002009867e-01 -1.8451377167189234e-01 0.0000000000000000e+00  -5.6632074855535219e-01 -1.6867988633370279e-01 0.0000000000000000e+00  -5.3723691893328729e-01 -1.5161321600965291e-01 0.0000000000000000e+00  -5.0205940552575035e-01 -1.3323398244154683e-01 0.0000000000000000e+00  -4.6097943546034009e-01 -1.1356382031421872e-01 0.0000000000000000e+00  -4.1451624750129568e-01 -9.4577995460019396e-02 0.0000000000000000e+00  -3.6272061933811839e-01 -7.5355937083123409e-02 0.0000000000000000e+00  -3.0667575616955073e-01 -5.7791381964807043e-02 0.0000000000000000e+00  -2.4813113605647158e-01 -4.1509647706212988e-02 0.0000000000000000e+00  -1.8902981868069982e-01 -2.8154759398946967e-02 0.0000000000000000e+00  -1.3150967003159247e-01 -1.7352437665929768e-02 0.0000000000000000e+00  -7.8193509797746974e-02 -8.6614611099686389e-03 0.0000000000000000e+00  -3.2449019680053787e-02 -2.0198889246403578e-03 0.0000000000000000e+00  0.0000000000000000e+00 -1.6926740766235158e-19 0.0000000000000000e+00  0.0000000000000000e+00 5.6284751728549389e-19 0.0000000000000000e+00  -4.2244240112862972e-18 -3.1613032875213121e-18 0.0000000000000000e+00  0.0000000000000000e+00 2.9696546896219250e-18 0.0000000000000000e+00  -1.2674694037227234e-17 1.5709405301850791e-18 0.0000000000000000e+00  0.0000000000000000e+00 -2.8935044182317023e-18 0.0000000000000000e+00  -3.6747525599686817e-17 0.0000000000000000e+00 0.0000000000000000e+00  0.0000000000000000e+00 1.3082089146000983e-17 0.0000000000000000e+00  0.0000000000000000e+00 1.1734544252259329e-17 0.0000000000000000e+00  0.0000000000000000e+00 1.2553600614228543e-17 0.0000000000000000e+00  0.0000000000000000e+00 2.3036835769684287e-16 0.0000000000000000e+00  0.0000000000000000e+00 2.2356999616470481e-16 0.0000000000000000e+00  -9.9841479362716117e-18 3.0466776008277587e-17 0.0000000000000000e+00  -4.8996700799527165e-17 -3.0550001826948595e-17 0.0000000000000000e+00  3.5019088302455491e-17 -1.7361026509395514e-17 0.0000000000000000e+00  6.3373470186196527e-17 0.0000000000000000e+00 0.0000000000000000e+00  0.0000000000000000e+00 -3.2666201585819248e-17 0.0000000000000000e+00  0.0000000000000000e+00 4.1860015945087465e-18 0.0000000000000000e+00  0.0000000000000000e+00 1.4126369061275280e-18 0.0000000000000000e+00  4.3798942373675960e-17 -6.7706963064891673e-18 0.0000000000000000e+00  -7.6714446306394990e-01 -2.6444793576575693e-01 0.0000000000000000e+00  -7.7159793352063111e-01 -1.9333399738199741e-01 0.0000000000000000e+00  -4.8821688847268191e-01 -6.8676719947181303e-02 0.0000000000000000e+00  -7.5057981126278017e-01 -3.5603202674606149e-01 0.0000000000000000e+00  -6.8466323797642314e-01 -2.5420051269051847e-01 0.0000000000000000e+00  -7.0955372944949791e-01 -3.3695433635719513e-01 0.0000000000000000e+00  -5.8933271910383322e-01 -1.0922975391005008e-01 0.0000000000000000e+00  -6.0667379304985736e-01 -1.6295961019848232e-01 0.0000000000000000e+00  -9.2401837835283318e-01 -2.6798463265102640e-01 0.0000000000000000e+00  -5.4557203397651233e-01 -9.3100539688818318e-02 0.0000000000000000e+00  -2.4134702563906507e-01 -8.5533324799154098e-03 0.0000000000000000e+00  -5.5402485078960073e-01 -2.7156028437855778e-01 0.0000000000000000e+00  -6.6485482519424322e-01 -2.4428744918711764e-01 0.0000000000000000e+00  -8.4172831993807196e-01 -2.7652142991551915e-01 0.0000000000000000e+00  -6.6585015740203179e-01 -1.7955114927787691e-01 0.0000000000000000e+00  -6.8287672136096000e-01 -3.0035920376546449e-01 0.0000000000000000e+00  -6.5056525653056985e-01 -3.4421020069164204e-01 0.0000000000000000e+00  -5.0733617166647971e-01 -1.2337819028512383e-01 0.0000000000000000e+00  -3.6200322437877819e-01 -5.7510621221371306e-03 0.0000000000000000e+00  -8.9821114207129071e-01 -1.5449163321941969e-01 0.0000000000000000e+00  -4.6357200931310416e-01 -8.8474776147575235e-02 0.0000000000000000e+00  -8.4313649322453998e-01 -2.7527207492904132e-01 0.0000000000000000e+00  -6.3844211764726855e-01 -2.0229004731636538e-01 0.0000000000000000e+00  -7.2466640157188866e-01 -2.8659750602928913e-01 0.0000000000000000e+00  -7.7968290084829961e-01 -3.4230952785986318e-01 0.0000000000000000e+00  -7.4699433669188775e-01 -2.1031918136309344e-01 0.0000000000000000e+00  -6.7893019891022743e-01 -2.2024427298052912e-01 0.0000000000000000e+00  -8.5051800510794073e-01 -3.3215170092732949e-01 0.0000000000000000e+00  -6.1569564333178639e-01 -1.2411026546560380e-01 0.0000000000000000e+00  -6.6454403349282676e-01 -3.2380958755097100e-01 0.0000000000000000e+00  -7.5515029146638391e-01 -8.6213138025997130e-02 0.0000000000000000e+00  -3.2653261846754678e-01 -4.5394742717883567e-02 0.0000000000000000e+00  -3.2148942654800405e-01 -8.6839363981971590e-02 0.0000000000000000e+00  -1.6135850368914234e-01 1.9919484120545155e-02 0.0000000000000000e+00  -6.7209135495411410e-01 -2.7328968555367672e-01 0.0000000000000000e+00  -3.1559363796772899e-01 -2.8817318663224678e-02 0.0000000000000000e+00  -1.0306860942745028e-01 -1.6653853245631640e-03 0.0000000000000000e+00  -5.5291493709320572e-01 -2.8887928233342097e-01 0.0000000000000000e+00  -3.8690058346705419e-01 -4.3476590235273421e-02 0.0000000000000000e+00  -7.0852869073399194e-01 -1.7962867106827901e-01 0.0000000000000000e+00  -5.3845618251194871e-01 -1.3367396801218698e-01 0.0000000000000000e+00  -9.7534545385596139e-01 -1.6413178221147470e-01 0.0000000000000000e+00  -5.7745368956180365e-01 -1.2722299729139946e-01 0.0000000000000000e+00  -8.7546857936956346e-01 -2.4579473148084496e-01 0.0000000000000000e+00  -6.4579382641706451e-01 -2.1773789049267178e-01 0.0000000000000000e+00  -6.9873944152467415e-01 -2.2553504561813370e-01 0.0000000000000000e+00  -6.1739440356104780e-01 -1.3978224701597608e-01 0.0000000000000000e+00  -3.3805486173589278e-01 -1.5006307338002851e-02 0.0000000000000000e+00  -7.2058396385578261e-01 -3.5737193669773470e-01 0.0000000000000000e+00  -7.0606941542054358e-01 -3.0546610296260163e-01 0.0000000000000000e+00  -7.1323293694833989e-01 -2.0075749621265365e-01 0.0000000000000000e+00  -3.3570778099559700e-01 -1.2635037133122815e-01 0.0000000000000000e+00  -6.5937166413811865e-01 -2.3891678738740707e-01 0.0000000000000000e+00  -9.4743334780988708e-01 -1.8275902118945000e-01 0.0000000000000000e+00  -5.8971886854105648e-01 -1.6842783269803518e-01 0.0000000000000000e+00  -7.3189607847003257e-01 -2.4957850052803107e-01 0.0000000000000000e+00  -8.1123659098412548e-01 -3.0699770625869255e-01 0.0000000000000000e+00  -2.6645239242334195e-01 -5.2496684363307407e-02 0.0000000000000000e+00  -1.0408674182355999e-01 9.9988623586054204e-03 0.0000000000000000e+00  -6.3766019953869191e-01 -3.2407635692916381e-01 0.0000000000000000e+00  -4.0610806106176445e-01 -5.2399722367219251e-02 0.0000000000000000e+00  -7.7557428262772776e-01 -1.5313965329838697e-01 0.0000000000000000e+00  -7.6558206220005287e-01 -3.0931677751890230e-01 0.0000000000000000e+00  -7.1750553159488928e-01 -3.2124350761869774e-01 0.0000000000000000e+00  -6.6528703102571474e-01 -2.3427375331775407e-01 0.0000000000000000e+00  -5.7537354765799131e-01 -4.3625940863213815e-02 0.0000000000000000e+00  -2.1080511134223945e-01 -2.2007029974496328e-02 0.0000000000000000e+00  -6.4985937752128542e-01 -2.0305932124785683e-01 0.0000000000000000e+00  -8.3809792081317380e-01 -3.3145817289056045e-01 0.0000000000000000e+00  -6.5743654948715347e-01 -3.4607012098128465e-01 0.0000000000000000e+00  -6.8222356654222926e-01 -2.7387725490800380e-01 0.0000000000000000e+00  -5.0299338766467427e-01 -5.9141564057850690e-02 0.0000000000000000e+00  -4.5635508694182408e-01 -2.1161477638640230e-01 0.0000000000000000e+00  -6.6644786201914252e-01 -2.5679994361406655e-01 0.0000000000000000e+00  -8.0650752338852794e-01 -2.2950811419949160e-01 0.0000000000000000e+00  -3.4042872056905010e-01 -7.0672247524032131e-02 0.0000000000000000e+00  -2.5378882223545818e-01 1.2671531807582015e-02 0.0000000000000000e+00  -6.6795536748629314e-01 -3.0727369256150572e-01 0.0000000000000000e+00  -6.4269080259710198e-01 -1.7802474228202680e-01 0.0000000000000000e+00  -8.8354852611807988e-01 -2.9343233478011704e-01 0.0000000000000000e+00  -5.8847624839995039e-01 -3.0180320696119056e-01 0.0000000000000000e+00  -6.7840902573561390e-01 -3.4382702126305781e-01 0.0000000000000000e+00  -8.8286015332636159e-01 -7.9830101828196651e-02 0.0000000000000000e+00  -3.9493142133541448e-01 -7.4580617210188702e-02 0.0000000000000000e+00  -5.9501132232922516e-01 -1.2382703754599782e-01 0.0000000000000000e+00  -6.5218004429610510e-01 -2.2847579798163947e-01 0.0000000000000000e+00  -5.2338492878498866e-01 -1.7408127828443240e-01 0.0000000000000000e+00  -5.4294347028044265e-01 -1.0846533960253231e-01 0.0000000000000000e+00  -6.9986060128336025e-01 -2.5832141585573881e-01 0.0000000000000000e+00  -7.9212792461523562e-01 -3.5577659409935569e-01 0.0000000000000000e+00  -9.2943020163922352e-01 -2.1177304826890897e-01 0.0000000000000000e+00  -5.3998066663046718e-01 -1.2165155559065188e-01 0.0000000000000000e+00  -6.5475029151639419e-01 -1.6289887723520963e-01 0.0000000000000000e+00  -4.4855966070313558e-01 -4.0315077460202769e-02 0.0000000000000000e+00  -7.9041797991870744e-01 -2.6010316481185297e-01 0.0000000000000000e+00  -6.6997856865016003e-01 -2.9035964999023783e-01 0.0000000000000000e+00  -6.6894019425838813e-01 -1.5370384734274958e-01 0.0000000000000000e+00  -6.2082250456968513e-01 -1.9537854772137975e-01 0.0000000000000000e+00  -8.4610851210568960e-01 -1.7591636912926584e-01 0.0000000000000000e+00  -7.3215168026205923e-01 -3.1812802459567935e-01 0.0000000000000000e+00  -2.6462488511046767e-01 -7.8822675791501665e-02 0.0000000000000000e+00  -1.5846413036049062e-01 2.5985802727706266e-02 0.0000000000000000e+00  -9.1010229160865408e-01 -2.7065797344204384e-01 0.0000000000000000e+00  -8.5593910117263905e-01 -1.9700109662010995e-01 0.0000000000000000e+00  -5.0272636833832496e-01 -9.2639866412154603e-02 0.0000000000000000e+00  -6.9083507528379484e-01 -3.2214156458191573e-01 0.0000000000000000e+00  -4.6742282122717377e-01 -1.0488706175263823e-01 0.0000000000000000e+00  -9.6252634665703041e-01 -9.4054035503521385e-02 0.0000000000000000e+00  -7.4687712934792672e-01 -3.3973576532157268e-01 0.0000000000000000e+00  -6.6561397705732461e-01 -2.2684154526415737e-01 0.0000000000000000e+00  -6.9412045769717823e-01 -2.8366023883090236e-01 0.0000000000000000e+00  -4.4604443719556813e-01 -3.9135101948900630e-02 0.0000000000000000e+00  -7.0866875131711127e-01 -3.6079675061246980e-01 0.0000000000000000e+00  -6.1389039371704657e-01 -1.7699568175611660e-01 0.0000000000000000e+00  -6.7328209392703664e-01 -2.5535976769088103e-01 0.0000000000000000e+00  -1.9814308467710920e-01 -5.9664947854213123e-03 0.0000000000000000e+00  -5.1850890633906951e-02 -2.4375443582358384e-03 0.0000000000000000e+00  -2.2398431935592938e-01 -6.0289935366521670e-02 0.0000000000000000e+00  -9.8862852916993357e-02 1.6668862193196909e-02 0.0000000000000000e+00  -7.9562107332539589e-01 -2.3714173696805094e-01 0.0000000000000000e+00  -6.3345451674889219e-01 -3.2415749634733337e-01 0.0000000000000000e+00  -8.8542407443114268e-01 -3.1025051880211818e-01 0.0000000000000000e+00  -3.0300502544700780e-01 -2.4771873474609494e-02 0.0000000000000000e+00  -6.5535401334262344e-01 -1.0915944863617652e-01 0.0000000000000000e+00  -6.9285468796872651e-01 -1.6910491268351341e-01 0.0000000000000000e+00  -6.8761552533779746e-01 -2.1330738949244035e-01 0.0000000000000000e+00  -8.4738887234572546e-01 -3.0451822541901791e-01 0.0000000000000000e+00  -5.0227020877366890e-01 -1.2674131358014121e-01 0.0000000000000000e+00  -3.0287613538227126e-01 4.6305033266659983e-03 0.0000000000000000e+00  -8.1797434164426575e-01 -3.3555901300335722e-01 0.0000000000000000e+00  -7.0914082836357506e-01 -2.4852048552793737e-01 0.0000000000000000e+00  -6.8293562524156470e-01 -2.3533834180830079e-01 0.0000000000000000e+00  -1.8000649008422120e-01 -2.0671590852742679e-02 0.0000000000000000e+00  -5.7556720928185673e-02 2.6356359645677532e-03 0.0000000000000000e+00  -6.4656652222316813e-01 -3.1771542595884877e-01 0.0000000000000000e+00  -5.4953713300554885e-01 -1.4686530260422703e-01 0.0000000000000000e+00  -9.8591041608310825e-01 -1.1693021158243823e-01 0.0000000000000000e+00  -6.5982159864796008e-01 -1.6217840383297472e-01 0.0000000000000000e+00  -9.4643719296607520e-01 -2.3538654562780778e-01 0.0000000000000000e+00  -5.5399089759101938e-01 -9.1083739383304052e-02 0.0000000000000000e+00  -7.0854047113440322e-01 -4.3894777878331091e-02 0.0000000000000000e+00  -2.7293938255910788e-01 -3.9683282095940034e-02 0.0000000000000000e+00  -5.0274766331326415e-01 -1.0697345927767685e-01 0.0000000000000000e+00  -2.4293591086369890e-01 1.3846609501992379e-03 0.0000000000000000e+00  -7.5105184354231247e-01 -2.8132184419649303e-01 0.0000000000000000e+00  -4.3169320873724698e-01 -2.0155709769822158e-02 0.0000000000000000e+00  -1.3776995080189711e-01 -1.2643596052589258e-02 0.0000000000000000e+00  -7.8681625871259975e-01 -3.0662440991618595e-01 0.0000000000000000e+00  -6.6805711285230485e-01 -2.6859460381686284e-01 0.0000000000000000e+00  -4.8902596526887465e-01 -2.2612009104473665e-01 0.0000000000000000e+00  -4.0125094612248680e-01 -6.3328323560261343e-02 0.0000000000000000e+00  -8.3021045196607279e-01 -1.2795038836656769e-01 0.0000000000000000e+00  -3.9372860695209572e-01 -5.4927342345174712e-02 0.0000000000000000e+00  -1.4903598313071797e-01 -2.8099809062622942e-04 0.0000000000000000e+00  -7.3396499551770900e-01 -2.3346927572606002e-01 0.0000000000000000e+00  -6.0170157514686895e-01 -2.9971685632810441e-01 0.0000000000000000e+00  -7.5609044988137852e-01 -2.3654883153875167e-01 0.0000000000000000e+00  -6.8161187641220611e-01 -3.3361625304640091e-01 0.0000000000000000e+00  -7.1063958800047144e-01 -2.7971315948870751e-01 0.0000000000000000e+00  -7.9521505029952988e-01 -3.2245710936814626e-01 0.0000000000000000e+00  -6.2450491409475517e-01 -1.4685641396615254e-01 0.0000000000000000e+00  -6.5757575023908854e-01 -3.1243577959317220e-01 0.0000000000000000e+00  -6.5158140449637258e-01 -1.9518040744081319e-01 0.0000000000000000e+00  -7.5852524788907616e-01 -3.5846426963474765e-01 0.0000000000000000e+00  -6.7855193448692608e-01 -2.8453853986591765e-01 0.0000000000000000e+00  -6.6933434043592932e-01 -2.5781845859098662e-01 0.0000000000000000e+00  -5.8766889727173188e-01 -1.5620515283237427e-01 0.0000000000000000e+00  -6.1483065977019469e-01 -3.2918150515002137e-01 0.0000000000000000e+00  -7.6744721098040347e-01 -1.3619017726757310e-01 0.0000000000000000e+00  -6.2812261740872921e-01 -2.0532468017309022e-01 0.0000000000000000e+00  -5.9534605706538024e-01 -1.7922402051624145e-01 0.0000000000000000e+00  -9.1655251479959154e-01 -1.1815556329645215e-01 0.0000000000000000e+00  -5.3037526995087636e-01 -2.7406063923457863e-01 0.0000000000000000e+00  -6.4897485872772676e-01 -2.1648593073400174e-01 0.0000000000000000e+00  -7.6393122520582968e-01 -2.8005591801677210e-01 0.0000000000000000e+00  -2.1338706116323872e-01 -5.5816893351677506e-02 0.0000000000000000e+00  -6.5825434529156635e-01 -2.3796016579939042e-01 0.0000000000000000e+00  -2.2534701674839788e-01 -9.2344398914125676e-03 0.0000000000000000e+00  -7.2953970262201762e-01 -1.6623745352580249e-01 0.0000000000000000e+00  -4.1904887244399724e-01 -4.4971999693554685e-02 0.0000000000000000e+00  -1.8410735434893447e-01 -6.1396686217827463e-02 0.0000000000000000e+00  -9.0914773668792567e-02 2.2788008842231269e-02 0.0000000000000000e+00  -3.4416112628410628e-01 -1.1865525503222733e-01 0.0000000000000000e+00  -6.6281243001744339e-01 -2.4793296750119209e-01 0.0000000000000000e+00  -6.5187690700439049e-01 -2.7688678315687965e-01 0.0000000000000000e+00  -6.5813031154739032e-01 -2.3071061467518514e-01 0.0000000000000000e+00  -7.5242224572341299e-01 -1.9833020510793481e-01 0.0000000000000000e+00  -8.2951987792879833e-01 -2.2310271702895568e-01 0.0000000000000000e+00  -8.5256362176008549e-01 -2.5818284013259329e-01 0.0000000000000000e+00  -6.7783675665644560e-01 -3.1382912723477391e-01 0.0000000000000000e+00  -8.1366342003386982e-01 -4.9608649806971973e-02 0.0000000000000000e+00  -3.3313276465442165e-01 -5.8011288104260782e-02 0.0000000000000000e+00  -9.9253920332842493e-01 -8.3954069226939279e-02 0.0000000000000000e+00  -5.0405642897586367e-01 -1.2529752643879888e-01 0.0000000000000000e+00  -4.9530326945505937e-01 -6.8881758013688121e-02 0.0000000000000000e+00  -6.5334362250113165e-01 -2.3169227622092745e-01 0.0000000000000000e+00  -3.91