<?xml version="1.0"?>
<VTKFile type="UnstructuredGrid"  version="0.1"  >
<UnstructuredGrid>
<Piece  NumberOfPoints="3435" NumberOfCells="6668">
<Points>
<DataArray  type="Float64"  NumberOfComponents="3"  format="ascii">0 0 0  0 1 0  1 1 0  1 0 0  0 0.01999999999996237 0  0 0.03999999999992186 0  0 0.05999999999987837 0  0 0.07999999999984518 0  0 0.09999999999981463 0  0 0.1199999999997832 0  0 0.1399999999997328 0  0 0.1599999999996745 0  0 0.1799999999996162 0  0 0.1999999999995579 0  0 0.2199999999994996 0  0 0.2399999999994413 0  0 0.259999999999383 0  0 0.2799999999993247 0  0 0.2999999999992664 0  0 0.3199999999992081 0  0 0.3399999999991498 0  0 0.3599999999990915 0  0 0.3799999999990332 0  0 0.3999999999989749 0  0 0.4199999999989167 0  0 0.4399999999988584 0  0 0.4599999999988 0  0 0.4799999999987418 0  0 0.4999999999986943 0  0 0.5199999999987361 0  0 0.5399999999987888 0  0 0.5599999999988415 0  0 0.5799999999988942 0  0 0.5999999999989468 0  0 0.6199999999989995 0  0 0.6399999999990521 0  0 0.6599999999991049 0  0 0.6799999999991574 0  0 0.6999999999992101 0  0 0.7199999999992628 0  0 0.7399999999993154 0  0 0.7599999999993681 0  0 0.7799999999994207 0  0 0.7999999999994734 0  0 0.8199999999995261 0  0 0.8399999999995788 0  0 0.8599999999996314 0  0 0.8799999999996841 0  0 0.8999999999997367 0  0 0.9199999999997894 0  0 0.939999999999842 0  0 0.9599999999998947 0  0 0.9799999999999475 0  0.01999999999996237 1 0  0.03999999999992186 1 0  0.05999999999987837 1 0  0.07999999999984518 1 0  0.09999999999981463 1 0  0.1199999999997832 1 0  0.1399999999997328 1 0  0.1599999999996745 1 0  0.1799999999996162 1 0  0.1999999999995579 1 0  0.2199999999994996 1 0  0.2399999999994413 1 0  0.259999999999383 1 0  0.2799999999993247 1 0  0.2999999999992664 1 0  0.3199999999992081 1 0  0.3399999999991498 1 0  0.3599999999990915 1 0  0.3799999999990332 1 0  0.3999999999989749 1 0  0.4199999999989167 1 0  0.4399999999988584 1 0  0.4599999999988 1 0  0.4799999999987418 1 0  0.4999999999986943 1 0  0.5199999999987361 1 0  0.5399999999987888 1 0  0.5599999999988415 1 0  0.5799999999988942 1 0  0.5999999999989468 1 0  0.6199999999989995 1 0  0.6399999999990521 1 0  0.6599999999991049 1 0  0.6799999999991574 1 0  0.6999999999992101 1 0  0.7199999999992628 1 0  0.7399999999993154 1 0  0.7599999999993681 1 0  0.7799999999994207 1 0  0.7999999999994734 1 0  0.8199999999995261 1 0  0.8399999999995788 1 0  0.8599999999996314 1 0  0.8799999999996841 1 0  0.8999999999997367 1 0  0.9199999999997894 1 0  0.939999999999842 1 0  0.9599999999998947 1 0  0.9799999999999475 1 0  1 0.9799999999999167 0  1 0.9599999999998334 0  1 0.9399999999997501 0  1 0.9199999999996669 0  1 0.8999999999995835 0  1 0.879999999999508 0  1 0.8599999999995834 0  1 0.8399999999997222 0  1 0.819999999999861 0  1 0.7999999999999997 0  1 0.7800000000001385 0  1 0.7600000000002772 0  1 0.7400000000004161 0  1 0.7200000000005549 0  1 0.7000000000006936 0  1 0.6800000000008324 0  1 0.660000000000971 0  1 0.6400000000011098 0  1 0.6200000000012484 0  1 0.6000000000013872 0  1 0.5800000000015259 0  1 0.5600000000016645 0  1 0.5400000000018033 0  1 0.5200000000019419 0  1 0.500000000002059 0  1 0.4800000000019974 0  1 0.4600000000019141 0  1 0.4400000000018309 0  1 0.4200000000017478 0  1 0.4000000000016645 0  1 0.3800000000015813 0  1 0.360000000001498 0  1 0.3400000000014148 0  1 0.3200000000013316 0  1 0.3000000000012484 0  1 0.2800000000011651 0  1 0.2600000000010819 0  1 0.2400000000009987 0  1 0.2200000000009155 0  1 0.2000000000008322 0  1 0.180000000000749 0  1 0.1600000000006658 0  1 0.1400000000005825 0  1 0.1200000000004994 0  1 0.1000000000004161 0  1 0.08000000000033292 0  1 0.06000000000024963 0  1 0.04000000000016646 0  1 0.02000000000008328 0  0.9799999999999167 0 0  0.9599999999998334 0 0  0.9399999999997501 0 0  0.9199999999996669 0 0  0.8999999999995835 0 0  0.879999999999508 0 0  0.8599999999995834 0 0  0.8399999999997222 0 0  0.819999999999861 0 0  0.7999999999999997 0 0  0.7800000000001385 0 0  0.7600000000002772 0 0  0.7400000000004161 0 0  0.7200000000005549 0 0  0.7000000000006936 0 0  0.6800000000008324 0 0  0.660000000000971 0 0  0.6400000000011098 0 0  0.6200000000012484 0 0  0.6000000000013872 0 0  0.5800000000015259 0 0  0.5600000000016645 0 0  0.5400000000018033 0 0  0.5200000000019419 0 0  0.500000000002059 0 0  0.4800000000019974 0 0  0.4600000000019141 0 0  0.4400000000018309 0 0  0.4200000000017478 0 0  0.4000000000016645 0 0  0.3800000000015813 0 0  0.360000000001498 0 0  0.3400000000014148 0 0  0.3200000000013316 0 0  0.3000000000012484 0 0  0.2800000000011651 0 0  0.2600000000010819 0 0  0.2400000000009987 0 0  0.2200000000009155 0 0  0.2000000000008322 0 0  0.180000000000749 0 0  0.1600000000006658 0 0  0.1400000000005825 0 0  0.1200000000004994 0 0  0.1000000000004161 0 0  0.08000000000033292 0 0  0.06000000000024963 0 0  0.04000000000016646 0 0  0.02000000000008328 0 0  0.4988052319392915 0.4980466674491711 0  0.7071428571428398 0.7071428571428754 0  0.7072447344212818 0.2946355750278933 0  0.2927725910169808 0.7054452467489503 0  0.2946355750278947 0.2927552655787184 0  0.7808571939567666 0.5008617408103191 0  0.5008617408103242 0.2191428060432361 0  0.4999999999999756 0.7803135888501739 0  0.2191428060432387 0.4991382591896787 0  0.8278931630347475 0.8307742388747479 0  0.8307742388747539 0.1721068369652513 0  0.1692257611252554 0.8278931630347461 0  0.1721068369652531 0.16922576112525 0  0.6427817860244729 0.5673900584608694 0  0.5684922888699122 0.3604244654215455 0  0.4301875877660374 0.6418861771399353 0  0.3607458259372539 0.4350575093865461 0  0.8489418596255669 0.6404485696436909 0  0.6404485696436985 0.1510581403744349 0  0.3595514303563074 0.8489418596255701 0  0.1510581403744317 0.3595514303563008 0  0.6387806120251882 0.8480632571571225 0  0.8457880972977968 0.3603771440051159 0  0.1542119027022062 0.639622855994886 0  0.3603771440051208 0.154211902702204 0  0.6658470084644037 0.4431633343523283 0  0.5805270358994139 0.679495078699337 0  0.440935308873225 0.3348143149135674 0  0.3323982434123119 0.5574895336533809 0  0.8875794563814801 0.5358136269127733 0  0.5358136269127793 0.1124205436185214 0  0.4641863730872217 0.8875794563814632 0  0.112420543618538 0.4641863730872172 0  0.8900554184160456 0.7378630536839029 0  0.737863053683912 0.1099445815839558 0  0.262136946316092 0.8900554184160382 0  0.1099445815839639 0.2621369463160841 0  0.7373029400273663 0.8916632236100271 0  0.1083367763899683 0.7373029400273524 0  0.8916632236100259 0.2626970599726457 0  0.2626970599726601 0.1083367763899711 0  0.7432394150765145 0.6025486822212992 0  0.6037277385211411 0.2554446055075988 0  0.3963359714895392 0.7434691607959421 0  0.2567605849234874 0.3974513177786979 0  0.5268039273125616 0.5975141279390622 0  0.1015241840425989 0.8975859085672049 0  0.1024140914327928 0.1015241840425951 0  0.8975859085672171 0.8984758159574128 0  0.8984758159574163 0.1024140914327807 0  0.7484095753123203 0.3822620355070494 0  0.2515904246876842 0.6177379644929517 0  0.3822620355070541 0.2515904246876822 0  0.9028520452155044 0.4390055102398427 0  0.5609944897601545 0.9028520452154943 0  0.4390055102398484 0.09714795478449655 0  0.09714795478450594 0.5609944897601501 0  0.796163577574597 0.739515496872086 0  0.7395154968720952 0.2038364224254058 0  0.260484503127911 0.7961635775745934 0  0.2038364224254094 0.2604845031279008 0  0.7221756557139702 0.800047785293867 0  0.7996588680199002 0.2787675509104928 0  0.2003411319801028 0.7212324490895152 0  0.2787675509104957 0.2003411319800983 0  0.5901578624732027 0.4900469704438588 0  0.4978926817970797 0.4086390860228786 0  0.424440319259638 0.5507031608134774 0  0.6312333945073793 0.7552463128175867 0  0.6541233370015551 0.3543561405332521 0  0.4986000364714219 0.6933712533628951 0  0.3472519881117159 0.6420578031549198 0  0.3577738014380257 0.3512101326092226 0  0.9167719254742401 0.818108560957185 0  0.8181085609571895 0.08322807452575723 0  0.181891439042815 0.9167719254742536 0  0.08322807452574427 0.1818914390428105 0  0.08322807452578969 0.8181085609571535 0  0.8181085609571593 0.9167719254742144 0  0.1818914390428488 0.08322807452579854 0  0.9167719254742056 0.1818914390428433 0  0.7006390368074954 0.5125240044557005 0  0.6533777209540697 0.6485200158596455 0  0.5125240044557063 0.2993609631925074 0  0.2978844801533078 0.4859190702453877 0  0.919990387000439 0.6085103953900161 0  0.6085103953900226 0.08000961299956141 0  0.3914896046099769 0.9199903870004608 0  0.0800096129995399 0.3914896046099716 0  0.66557857454559 0.9201353609153889 0  0.07986463908461022 0.6655785745455786 0  0.9201353609154098 0.3344214254544244 0  0.3344214254544371 0.07986463908459003 0  0.824965957857552 0.4352879630057248 0  0.5643285107019984 0.8247430358085799 0  0.43528796300573 0.1750340421424505 0  0.175034042142462 0.5647120369942904 0  0.4320939220092935 0.4645930444832851 0  0.8157604447241862 0.5643646441737242 0  0.5643646441737298 0.1842395552758153 0  0.4334578724692266 0.8158463392837987 0  0.1839688758355419 0.4354321973664015 0  0.777146260073144 0.6669385990935849 0  0.6693783837155192 0.2185279934195906 0  0.3306216162844881 0.7814720065804115 0  0.2185279934195905 0.3306216162844791 0  0.928812384529009 0.6777774527998315 0  0.6777774527998403 0.07118761547099206 0  0.3222225472001568 0.9288123845290077 0  0.07118761547099377 0.3222225472001503 0  0.5617943947859029 0.7493293948768034 0  0.5520218997106441 0.4236937772190833 0  0.3783745410335683 0.4983336640447293 0  0.7333507064245109 0.4515495548013826 0  0.4515495548013874 0.2666492935754926 0  0.2664117243196683 0.5494649253251076 0  0.5893118790124817 0.6132799097263567 0  0.4123954695908461 0.3952496287470322 0  0.5741954278822761 0.553325712590006 0  0.9394712463153653 0.4933932528185722 0  0.4933932528185783 0.0605287536846343 0  0.5066067471814313 0.9394712463153205 0  0.06052875368467905 0.5066067471814268 0  0.6152557795654124 0.40
[...]
<PointData  Scalars="f_15"> 
<DataArray  type="Float64"  Name="f_15"  format="ascii">0.0000000000000000e+00  1.0000000000000000e+00  2.0000000000000000e+00  1.0000000000000000e+00  1.9999999999962371e-02  3.9999999999921862e-02  5.9999999999878366e-02  7.9999999999845181e-02  9.9999999999814626e-02  1.1999999999978320e-01  1.3999999999973281e-01  1.5999999999967451e-01  1.7999999999961619e-01  1.9999999999955789e-01  2.1999999999949960e-01  2.3999999999944130e-01  2.5999999999938300e-01  2.7999999999932468e-01  2.9999999999926641e-01  3.1999999999920808e-01  3.3999999999914982e-01  3.5999999999909149e-01  3.7999999999903322e-01  3.9999999999897490e-01  4.1999999999891668e-01  4.3999999999885842e-01  4.5999999999879998e-01  4.7999999999874182e-01  4.9999999999869432e-01  5.1999999999873614e-01  5.3999999999878878e-01  5.5999999999884154e-01  5.7999999999889418e-01  5.9999999999894682e-01  6.1999999999899946e-01  6.3999999999905210e-01  6.5999999999910486e-01  6.7999999999915739e-01  6.9999999999921014e-01  7.1999999999926279e-01  7.3999999999931543e-01  7.5999999999936807e-01  7.7999999999942071e-01  7.9999999999947335e-01  8.1999999999952611e-01  8.3999999999957875e-01  8.5999999999963139e-01  8.7999999999968415e-01  8.9999999999973668e-01  9.1999999999978954e-01  9.3999999999984196e-01  9.5999999999989472e-01  9.7999999999994758e-01  1.0199999999999623e+00  1.0399999999999219e+00  1.0599999999998784e+00  1.0799999999998451e+00  1.0999999999998147e+00  1.1199999999997832e+00  1.1399999999997328e+00  1.1599999999996746e+00  1.1799999999996162e+00  1.1999999999995579e+00  1.2199999999994997e+00  1.2399999999994413e+00  1.2599999999993829e+00  1.2799999999993248e+00  1.2999999999992664e+00  1.3199999999992080e+00  1.3399999999991499e+00  1.3599999999990915e+00  1.3799999999990331e+00  1.3999999999989750e+00  1.4199999999989168e+00  1.4399999999988584e+00  1.4599999999988000e+00  1.4799999999987419e+00  1.4999999999986944e+00  1.5199999999987361e+00  1.5399999999987888e+00  1.5599999999988414e+00  1.5799999999988943e+00  1.5999999999989467e+00  1.6199999999989996e+00  1.6399999999990520e+00  1.6599999999991046e+00  1.6799999999991573e+00  1.6999999999992104e+00  1.7199999999992626e+00  1.7399999999993154e+00  1.7599999999993681e+00  1.7799999999994207e+00  1.7999999999994734e+00  1.8199999999995260e+00  1.8399999999995789e+00  1.8599999999996313e+00  1.8799999999996839e+00  1.8999999999997363e+00  1.9199999999997892e+00  1.9399999999998419e+00  1.9599999999998947e+00  1.9799999999999476e+00  1.9799999999999169e+00  1.9599999999998334e+00  1.9399999999997501e+00  1.9199999999996666e+00  1.8999999999995834e+00  1.8799999999995078e+00  1.8599999999995833e+00  1.8399999999997223e+00  1.8199999999998608e+00  1.7999999999999998e+00  1.7800000000001381e+00  1.7600000000002773e+00  1.7400000000004161e+00  1.7200000000005549e+00  1.7000000000006936e+00  1.6800000000008324e+00  1.6600000000009709e+00  1.6400000000011099e+00  1.6200000000012484e+00  1.6000000000013872e+00  1.5800000000015260e+00  1.5600000000016645e+00  1.5400000000018033e+00  1.5200000000019420e+00  1.5000000000020590e+00  1.4800000000019975e+00  1.4600000000019140e+00  1.4400000000018309e+00  1.4200000000017479e+00  1.4000000000016646e+00  1.3800000000015813e+00  1.3600000000014980e+00  1.3400000000014147e+00  1.3200000000013317e+00  1.3000000000012484e+00  1.2800000000011651e+00  1.2600000000010820e+00  1.2400000000009987e+00  1.2200000000009155e+00  1.2000000000008322e+00  1.1800000000007489e+00  1.1600000000006658e+00  1.1400000000005825e+00  1.1200000000004995e+00  1.1000000000004162e+00  1.0800000000003329e+00  1.0600000000002496e+00  1.0400000000001666e+00  1.0200000000000833e+00  9.7999999999991672e-01  9.5999999999983354e-01  9.3999999999975004e-01  9.1999999999966686e-01  8.9999999999958347e-01  8.7999999999950795e-01  8.5999999999958343e-01  8.3999999999972219e-01  8.1999999999986095e-01  7.9999999999999960e-01  7.8000000000013847e-01  7.6000000000027723e-01  7.4000000000041610e-01  7.2000000000055486e-01  7.0000000000069362e-01  6.8000000000083238e-01  6.6000000000097103e-01  6.4000000000110979e-01  6.2000000000124844e-01  6.0000000000138720e-01  5.8000000000152585e-01  5.6000000000166450e-01  5.4000000000180326e-01  5.2000000000194191e-01  5.0000000000205902e-01  4.8000000000199738e-01  4.6000000000191410e-01  4.4000000000183093e-01  4.2000000000174781e-01  4.0000000000166452e-01  3.8000000000158130e-01  3.6000000000149801e-01  3.4000000000141478e-01  3.2000000000133161e-01  3.0000000000124838e-01  2.8000000000116509e-01  2.6000000000108192e-01  2.4000000000099869e-01  2.2000000000091549e-01  2.0000000000083221e-01  1.8000000000074901e-01  1.6000000000066580e-01  1.4000000000058249e-01  1.2000000000049940e-01  1.0000000000041610e-01  8.0000000000332916e-02  6.0000000000249631e-02  4.0000000000166458e-02  2.0000000000083281e-02  9.9685189938848162e-01  1.4142857142857357e+00  1.0018803094491868e+00  9.9821783776594197e-01  5.8739084060662172e-01  1.2817189347671016e+00  7.2000454685357018e-01  1.2803135888501662e+00  7.1828106523292756e-01  1.6586674019095091e+00  1.0028810758400106e+00  9.9711892416000747e-01  3.4133259809050642e-01  1.2101718444853622e+00  9.2891675429147191e-01  1.0720737649059904e+00  7.9580333532381253e-01  1.4893904292692732e+00  7.9150671001814166e-01  1.2084932899818859e+00  5.1060957073073854e-01  1.4868438691823282e+00  1.2061652413029234e+00  7.9383475869709930e-01  5.1458904670733030e-01  1.1090103428167486e+00  1.2600221145987727e+00  7.7574962378680445e-01  8.8988777706570665e-01  1.4233930832942636e+00  6.4823417053130783e-01  1.3517658294686943e+00  5.7660691670576059e-01  1.6279184720999591e+00  8.4780763526787351e-01  1.1521923647321362e+00  3.7208152790005161e-01  1.6289661636374053e+00  8.4563971641732461e-01  1.1543602835826776e+00  3.7103383636263426e-01  1.3457880972978329e+00  8.5917234402875153e-01  1.1398051322854954e+00  6.5421190270219420e-01  1.1243180552516441e+00  9.9911009260980566e-01  2.0393827547538917e-01  1.7960617245246371e+00  1.0008899073901998e+00  1.1306716108193851e+00  8.6932838918064659e-01  6.3385246019474517e-01  1.3418575554553549e+00  1.4638465349756582e+00  5.3615346502434957e-01  6.5814244454466098e-01  1.5356790744467008e+00  9.4335191929750850e-01  1.0566480807025136e+00  4.6432092555331644e-01  1.5222234410078552e+00  1.0784264189304027e+00  9.2157358106962650e-01  4.7910868289059982e-01  1.0802048329170801e+00  9.0653176781997380e-01  9.7514348007313256e-01  1.3864797073249868e+00  1.0084794775348216e+00  1.1919712898343360e+00  9.8930979126664986e-01  7.0898393404725846e-01  1.7348804864314318e+00  9.0133663548294995e-01  1.0986633645170725e+00  2.6511951356855668e-01  9.0133663548294662e-01  1.7348804864313834e+00  2.6511951356864910e-01  1.0986633645170525e+00  1.2131630412632146e+00  1.3018977368137359e+00  8.1188496764822493e-01  7.8380355039870764e-01  1.5285007823904646e+00  6.8852000838958949e-01  1.3114799916104432e+00  4.7149921760951535e-01  1.5857139354609884e+00  7.4544321363019272e-01  1.2545567863698395e+00  4.1428606453903005e-01  1.2602539208632901e+00  1.3890715465105943e+00  6.1032200514818813e-01  7.3974607913676060e-01  8.9668696649259472e-01  1.3801250888979264e+00  7.4860419944955425e-01  1.2493042117530380e+00  6.1940107320195081e-01  1.4440848591667477e+00  8.8790637713511966e-01  1.1120936228649094e+00  5.4914960970407733e-01  1.6065898373288481e+00  7.4896506827083664e-01  1.2510349317291678e+00  3.9341016267114687e-01  1.3111237896627259e+00  9.7571567692974404e-01  8.7670820507831249e-01  1.1849002612259101e+00  7.1819884837689030e-01  8.1587664964478723e-01  1.2025917887388589e+00  8.0764509833789133e-01  1.1275211404723013e+00  1.4328644991339423e+00  5.5392200650321666e-01  1.4460779934967574e+00  5.6713550086610898e-01  1.0214250322792806e+00  1.3368053208388451e+00  6.5987016311985069e-01  1.3411490804430026e+00  6.6319467916119190e-01  1.5439730045010913e+00  8.5735474754574936e-01  1.1426452524542727e+00  4.5602699549892650e-01  1.6080789690990278e+00  1.0670520258669061e+00  9.3294797413309483e-01  3.9192103090099950e-01  1.0786537665679570e+00  9.2134623343207189e-01  5.6566637631484817e-01  1.5481938523739671e+00  6.7013095155153701e-01  1.3298690484485391e+00  4.5180614762601390e-01  9.4446600683598958e-01  1.0581374500886407e+00  6.5038492566277029e-01  9.8986046766800273e-01  1.1360032810024334e+00  1.0418307534890472e+00  1.0018055446304266e+00  1.1588807998882299e-01  1.8823359360056240e+00  9.9889789728431788e-01  1.4965859762673754e+00  6.1245112657762779e-01  1.3875488734223809e+00  5.0341402373264110e-01  1.7046470246790688e+00  8.2274584352779245e-01  1.1772541564722079e+00  2.9535297532094740e-01  1.7077917285324860e+00  8.2430721922655537e-01  1.1756927807734705e+00  2.9220827146751949e-01  1.6204992860991290e+00  9.2861437243197931e-01  1.0713856275680356e+00  3.7950071390088558e-01  1.5503114232448767e+00  1.1558079103325820e+00  8.4419208966744086e-01  4.4949606215926863e-01  1.3604801924054135e+00  1.1541885317713565e+00  8.6605213590038854e-01  1.2713587113173495e+00  8.7261068674616882e-01  1.3535656661565054e+00  7.3373066646979057e-01  1.2953823918446237e+00  7.9897392986840077e-01  7.0461760815540553e-01  1.8097974129802508e+00  9.1929108300504592e-01  1.0807089169949291e+00  1.9020258701977744e-01  9.2184891628351184e-01  1.8114974185229455e+00  1.8850258147705815e-01  1.0781510837165040e+00  1.1863181707232007e+00  1.0852197679503228e+00  6.9953224994950247e-01  9.1507943993161178e-01  1.2029061402518928e+00  1.4621469301750818e+00  7.1496468997077200e-01  1.2821930810392177e+00  5.3785306982492664e-01  1.4919421536531117e+00  1.0068075774049798e+00  9.9319242259504414e-01  5.0754100518700695e-01  1.4426942334142274e+00  1.4122704753337785e+00  8.2168479385727611e-01  1.1858590398032358e+00  5.8772952466624251e-01  1.6583261572365249e+00  7.6138627364600908e-01  1.2386137263540529e+00  3.4167384276355106e-01  1.7280954594298892e+00  9.7599805126492178e-01  1.0240019487350953e+00  2.7190454057013136e-01  1.1866095313711558e+00  8.1339046862889697e-01  5.8801111285952679e-01  1.1175214575436152e+00  1.5821444059574272e+00  9.9905325274827761e-01  1.0009467472517259e+00  4.1785559404259709e-01  1.0558092175779707e+00  9.4419078242205856e-01  6.3406272329574764e-01  1.4987259240738244e+00  1.2783015393722728e+00  7.2169846062777432e-01  5.0127407592614459e-01  1.4141064694276075e+00  1.0607259764312875e+00  1.4732538199475889e+00  9.5853361298813466e-01  1.0450464729744113e+00  1.1378718236280219e+00  8.6212817637200501e-01  5.1898999792651479e-01  1.0236666035179431e+00  1.5045343181668533e+00  6.0183201926101482e-01  1.3981679807389653e+00  4.9546568183322298e-01  9.3611810446084831e-01  7.2475046480780014e-01  1.6742725459439225e+00  1.0656719128631456e+00  9.3432808713686299e-01  3.2572745405611442e-01  1.3735767006005601e+00  5.9708232043658982e-01  1.4029176795634513e+00  6.2642329939948527e-01  1.2053308773797522e+00  6.5686169109654047e-01  7.9466912262028944e-01  1.5539903398790258e+00  7.9134542110437822e-01  1.2086545788956431e+00  4.4600966012098608e-01  9.3933959779992837e-01  1.0726648819954678e+00  1.6731440738879944e+00  7.6205974865447568e-01  1.2379402513455211e+00  3.2685592611201270e-01  1.0613851098196749e+00  8.3521803639195491e-01  1.2484776962151511e+00  1.5940634767651223e+00  6.8521366952418272e-01  1.3147863304758189e+00  4.0593652323486112e-01  9.2544651517744336e-01  1.3229358282751993e+00  1.6810622053892186e+00  9.3533202549869843e-01  1.0646679745013270e+00  3.1893779461078492e-01  1.4573398502827826e+00  9.5197675414898142e-01  1.0480232458510474e+00  5.4256939570516638e-01  1.2991027378166773e+00  9.6048939867468519e-01  1.7488659121411609e+00  2.5113408785886226e-01  1.0395106013253304e+00  7.5626493299544384e-01  1.2510179312643801e+00  9.2117045465511060e-01  8.1064601570939443e-01  8.4584682269959033e-01  1.3308152049268911e+00  8.7190544522257796e-01  1.1474617852759217e+00  1.2293401043706036e+00  1.1625700900776799e+00  7.5281726697066587e-01  7.7598662322005341e-01  7.6998576822339826e-01  1.2364431226213464e+00  1.2673511411560678e+00  1.7634914806412434e+00  8.4813081985808891e-01  1.1518691801419156e+00  2.3650851935881798e-01  1.7657424330035860e+00  8.4714595237477752e-01  1.1528540476252083e+00  2.3425756699641737e-01  8.5077795019962887e-01  1.6050596145736900e+00  6.8958451293165623e-01  1.3104154870683795e+00  3.9494038542627397e-01  9.4757983068378893e-01  1.3501277920755288e+00  8.0035922672087279e-01  6.4981278561979938e-01  1.3818886316250205e+00  6.9094831845598248e-01  1.3092612977248497e+00  6.1811136837502012e-01  1.5408407824505299e+00  7.8583450847997349e-01  1.2141654915200606e+00  4.5939695892505944e-01  1.3210543216297439e+00  5.8615443822182012e-01  1.4105220435420096e+00  6.7894567837030473e-01  1.5495574557882168e+00  6.3140608026878631e-01  1.3685939197312853e+00  4.5044254421199115e-01  7.6382137915867654e-01  1.2501918298942769e+00  1.4511041035048031e+00  5.5170781117789203e-01  7.4980817010579837e-01  9.0087847583312608e-01  1.0995636285790067e+00  6.1351427623690868e-01  9.5939374100495778e-01  1.6814128372949098e+00  8.7559069693704150e-01  1.1244093030629760e+00  3.1858716270510617e-01  1.6814080546841825e+00  8.7557533472484772e-01  1.1244246652751673e+00  3.1859194531583890e-01  1.1278352411678809e+00  1.5194962290926135e+00  7.4610156852224052e-01  1.2525669764656100e+00  4.8050377090739249e-01  1.0543418500168773e+00  1.3915435385393682e-01  1.8608456461460765e+00  9.4709029430921710e-01  9.4565814998302700e-01  1.8653673641021942e+00  1.3563798192680157e-01  1.0529097056908034e+00  1.1968970260548994e+00  1.4868018992796022e+00  8.4857856759532113e-01  1.1514214324047067e+00  5.1321365026762378e-01  1.5992112006350021e+00  8.0011812620092071e-01  1.1998818737991019e+00  4.0078879936500345e-01  1.3553744835572537e+00  9.9868777686156107e-01  1.0017648065669265e+00  6.5482064818325603e-01  1.0735767825455351e+00  1.3285676267052409e+00  7.4937735960604923e-01  6.7143237329479177e-01  1.2123775396492928e+00  8.7232198281438011e-01  1.0608016218198595e+00  1.4766952855875271e+00  6.6480537771159809e-01  1.3351946222883895e+00  5.2330471441247306e-01  1.2813489884036344e+00  6.6581214101666608e-01  7.1865101159639921e-01  9.0463489209916559e-01  1.2778357065851140e+00  1.1757542296721717e+00  1.3856259658111996e+00  8.9509289320023555e-01  6.8784852015477360e-01  1.4359945119704300e+00  7.7035891839471615e-01  1.2301830068408670e+00  5.6400548802959383e-01  1.1347785348103938e+00  8.6522146518963949e-01  5.8038832958905995e-01  1.3715260280100154e+00  9.7352133067464863e-01  1.4967957067887199e+00  9.0142761624818235e-01  1.0985723837518431e+00  5.0429729128724199e-01  1.4832538791475427e+00  5.6207509733318339e-01  1.4379249026668530e+00  5.1674612085247806e-01  1.1509847677955189e+00  1.0798307846102366e+00  8.2103249379433674e-01  1.1121855688075757e+00  1.5365742622110838e+00  1.0311829172405935e+00  9.6881708275943035e-01  4.6311139290011261e-01  1.5649485313960620e+00  1.1038567502441081e+00  8.9614324975591153e-01  4.3508756756287553e-01  1.1264999270656990e+00  7.3086726392134993e-01  8.6973018168105609e-01  1.2156905573524834e+00  1.1868966183037035e+00  1.5887187630754096e+00  8.7902368862028724e-01  1.1209763113797264e+00  4.1128123692460555e-01  9.7556849104840293e-01  1.6024361722118323e+00  8.0347561078456031e-01  1.1965243892154498e+00  3.9756382778817528e-01  1.2366436786127657e+00  6.9621234379804653e-01  7.6381876446923302e-01  9.5176542032513534e-01  1.0482345796748960e+00  5.9692338841466253e-01  1.3067293725894646e+00  1.1423750450719066e+00  8.1621177696148206e-01  1.0401793045811949e+00  8.4308791541715555e-01  1.6504062778590740e+00  7.2123864628311596e-01  1.2787613537168874e+00  3.4959372214092338e-01  1.0305193045518510e+00  1.6435248819852224e+00  7.1218548336368093e-01  1.2878145166364716e+00  3.5647511801487297e-01  1.5634661698981618e+00  7.2642599629211402e-01  1.2735740037078958e+00  4.3653383010183383e-01  1.0388858998611539e+00  9.6111410013887355e-01  5.4846719190002724e-01  1.7648479622965589e+00  9.4169900874283263e-01  1.0583009912571808e+00  2.3515203770348703e-01  1.4503775175615135e+00  6.0468534406129826e-01  1.3953146559386824e+00  5.4962248243852918e-01  1.4116357103952355e+00  1.1520535672273096e+00  6.8461940236225172e-01  8.4794643277272452e-01  9.9959296331966319e-01  6.5058053471717225e-02  1.9349419465282849e+00  9.9959296331967118e-01  1.6988356943261300e+00  1.0235589253985935e+00  9.7644107460141749e-01  3.0116430567389779e-01  1.5501952842932356e+00  6.1855808845968718e-01  1.3814419115404037e+00  4.4980471570683750e-01  1.3251666315679205e+00  6.9910194804161285e-01  6.7483336843210717e-01  1.8054075800602125e+00  8.7326401665213194e-01  1.1267359833478789e+00  1.9459241993979462e-01  8.7266773944734954e-01  1.8073377167554805e+00  1.9266228324452636e-01  1.1273322605526352e+00  1.7115227047041228e+00  7.7448112332167096e-01  1.2255188766784375e+00  2.8847729529600313e-01  1.4007178763620676e+00  1.5449267976655769e+00  7.1597981515260778e-01  1.2840201848474591e+00  4.5507320233438897e-01  1.3265376496271497e+00  1.4466648047284365e+00  5.1240291098597501e-01  1.4875970890142436e+00  5.5333519527178943e-01  1.6451144031480815e+00  1.1013432173938147e+00  8.9865678260619142e-01  3.5488559685195642e-01  1.4259601875353825e+00  1.1631491941620171e+00  1.6621585225237407e+00  8.1411491453059892e-01  1.1858850854693936e+00  3.3784147747627835e-01  1.6641668456121144e+00  8.1497400623064797e-01  1.1850259937693626e+00  3.3583315438790268e-01  1.2530443313030031e+00  1.1690542617955457e+00  9.9966655969630491e-01  1.1611974042303739e+00  1.4534750857454177e+00  1.2966947594052654e+00  7.0330524059479438e-01  5.4652491425464877e-01  1.2586072296925697e+00  8.3111531262758209e-01  7.4041019659411578e-01  1.3022600255423331e+00  8.4402692855618366e-01  6.9773997445769598e-01  1.3690871435000744e+00  1.0465869262020153e+00  9.5341307379801299e-01  6.7850485513439829e-01  1.0026619195367510e+00  1.3870547540832034e+00  5.3880560880348682e-01  1.4611943911965903e+00  6.1294524591681365e-01  1.0933798970140196e+00  9.0662010298600959e-01  6.0999491847131981e-01  1.1109040757382422e+00  9.2847085343594649e-01  1.5080401450516128e+00  6.4383903587857250e-01  1.3561609641214567e+00  4.9195985494839933e-01  1.0960328312251333e+00  1.7162848741557770e+00  7.7828870940504358e-01  1.2217112905949268e+00  2.8371512584424846e-01  1.0806524481664610e+00  1.6199973374553494e+00  1.0261403897660226e+00  9.7385961023397927e-01  3.8000266254467729e-01  1.4495069365365514e+00  1.1721260416132802e+00  8.2787395838675470e-01  5.4777219873044625e-01  1.5790371530646812e+00  1.6200102310640294e+00  9.5461061664664792e-01  9.7644746246774405e-01  1.0453893833533576e+00  1.0235525375322641e+00  4.2096284693533437e-01  3.7998976893598785e-01  1.2350730330377622e+00  1.0153916544992079e+00  1.5634811680683414e-01  1.8436518831931927e+00  9.8460834550078047e-01  9.6714559651385457e-01  6.8759675984501234e-01  1.3349935022052488e+00  1.0316164232716647e+00  1.3785025921557861e+00  6.4065401135034539e-01  1.3598266026652046e+00  6.2149740784423702e-01  1.6378437379475952e+00  8.9272867449598359e-01  1.1072713255040256e+00  3.6215626205241652e-01  1.5525776801198439e+00  9.0117035446326832e-01  1.0988296455367499e+00  4.4742231988017822e-01  1.0915220257776357e+00  9.0847797422239385e-01  5.2230039628233604e-01  9.8539048087912851e-01  1.5182237566327168e+00  1.5061958899648011e+00  1.0922667835529454e+00  9.0773321644708316e-01  6.5864064030351577e-01  1.5208294214070315e+00  8.1993635756630034e-01  1.1800636424337225e+00  4.7917057859298634e-01  9.6391446806412229e-01  1.8242201717037843e+00  1.7577982829621847e-01  1.0360855319358890e+00  8.6788780920915831e-01  1.1451169632618905e+00  1.0665468534005120e+00  9.9469426780201387e